Formula,E_hull_DFT (eV/atom),E_hull_ML (eV/atom),Delta (ML - DFT)
Fe2AgP,25.1664,21.4922,-3.6742
RbPm2PbO5,3.3946,7.0614,3.6668
ZnIn2Br,14.6197,15.4029,0.7833
PaAlCo,41.7975,36.9569,-4.8405
Cd(CoRe)2,38.2837,36.8823,-1.4014
ZnInBr2,12.4009,13.8363,1.4355
SiOsAu2,37.932,38.4367,0.5046
Zn2CdCo2,17.1594,11.1864,-5.973
NaGe(AsO3)2,4.6806,5.3303,0.6497
NaGe(TeO3)2,7.3338,6.5192,-0.8146
CdFeOs2,35.5304,33.9078,-1.6226
Ga2PRu2,11.5474,11.4896,-0.0578
RbSiPd2,8.9371,8.7609,-0.1762
BaSi2Ir,18.8685,16.3466,-2.522
ZrCdOs,32.0324,33.9689,1.9365
KHf,50.9786,30.9308,-20.0478
ScCdCu4,18.785,17.1904,-1.5946
Cd2CuRu,13.3403,15.5137,2.1734
MoAs2C,18.3156,16.9373,-1.3783
NaGe(AuO3)2,7.9729,9.4429,1.47
NaYTi2O6,11.8258,9.975,-1.8508
HfAsW,36.1292,31.8346,-4.2946
MnRu7,26.659,26.8224,0.1634
NaTmTi2O6,6.1368,5.7739,-0.3629
MoP2Pb,21.135,20.7759,-0.3592
NaPr2PbO6,6.3056,5.1108,-1.1948
ZrP2Pb,33.2082,31.3616,-1.8466
NaNbTl2O6,20.0042,19.1644,-0.8399
HfAsW,55.7016,31.8346,-23.867
BaIn9Ni2,17.8941,17.0116,-0.8825
NaNi(TeO3)2,14.9907,12.5382,-2.4525
NaPu(NiO3)2,13.2527,13.4662,0.2135
LiCrIr2,25.138,26.1953,1.0573
Rb5Sr3I12,6.7031,7.6409,0.9378
NdSmY2,13.8228,18.403,4.5802
Cd2Cu2Au,17.4255,19.4189,1.9934
Cu(ReNi)2,43.3357,30.0481,-13.2876
Cd2CuAu,23.0541,24.2876,1.2335
NdHg(H2Pd3)2,10.6923,11.6077,0.9154
In2RhCl,22.9804,20.555,-2.4254
Tb3Si2Ni9Ge,13.7329,12.3263,-1.4066
CdCoRu2,14.9502,17.7844,2.8341
Ta2HgPb,32.0263,34.8634,2.8371
SrSn4Pt,26.268,23.4662,-2.8018
Sr6Cd2Hg,13.631,12.8095,-0.8215
CsReGe3,32.1473,27.5624,-4.5849
ReGeO2,30.5328,30.9328,0.4
Cd(CoRu)2,6.7354,11.737,5.0016
NaU(PbO3)2,11.5757,14.6979,3.1222
Sr(AuI3)2,24.4424,25.261,0.8186
TiTeAuI2,33.2498,28.9478,-4.3019
MoP2Ru,17.6948,17.1827,-0.5121
Fe2RuBr,25.3651,19.8851,-5.4799
Tc5Sb,84.9146,74.1145,-10.8001
CdRuBr2,20.0579,17.9637,-2.0943
TiRu2Br,17.6316,17.9978,0.3662
Nd2YGa5O12,3.4437,3.8584,0.4147
TiSnI,23.1757,17.7307,-5.4451
Pm2Pr6YMg,1.2376,2.9294,1.6918
LaRhCl,34.2069,23.9626,-10.2443
CuSbRu3,22.3094,21.1093,-1.2001
LiBeIr2,22.4853,25.0263,2.541
NaAcTi2O6,9.5546,9.7759,0.2213
Tl2MoP,39.383,36.3137,-3.0693
CsTe2P,24.3696,24.4955,0.1259
NaTi(TeO3)2,10.8124,8.6832,-2.1292
Al2CdCu2,6.159,6.8678,0.7088
NaPm2TiO6,10.9172,11.9442,1.027
Cs2ScGaO4,40.4155,38.2882,-2.1272
LiMgNi2,0.5665,4.6298,4.0633
AcNi2BiO6,7.2395,10.4817,3.2423
InCo3Cl,10.0267,11.0963,1.0696
RbSc3Co,5.4957,6.1155,0.6198
Y3Er(ThBi2)4,47.5387,49.6734,2.1347
La2RhCl,38.0908,26.5343,-11.5565
Ti3TeBr,14.5254,14.844,0.3186
ZrCuRh2,50.5607,38.8739,-11.6868
TaHgPb,30.8877,33.2092,2.3215
Er2TlV,60.1027,54.8994,-5.2033
InCoCl2,8.248,10.7835,2.5355
Mo2PRh,29.1567,26.0907,-3.0661
BaLaAl,30.625,20.9844,-9.6406
CuNi2TeO6,7.2545,7.8622,0.6077
CrIrOs2,35.1155,38.1414,3.0259
NpNi2GeO6,10.8334,10.1524,-0.681
Ba2CaOs,12.4545,14.8037,2.3491
CrIrOs2,35.5556,38.1414,2.5858
SrSc2CrRh,24.6715,18.7925,-5.879
Sm5(YHo)2,23.2808,26.801,3.5202
GaCuCl,5.259,4.5892,-0.6698
NaFe2BrF,16.8903,13.2631,-3.6272
CoCuRu2,27.4029,25.0875,-2.3154
CrIr2Os,35.4066,38.303,2.8964
BaTiTe2I,31.0238,27.2013,-3.8226
CdSb2Te,37.6992,32.2562,-5.443
CdSbTe2Pb,40.8263,37.1679,-3.6585
Nd5(YHo)2,23.059,26.6249,3.5659
NpNi2PdO6,8.5932,10.973,2.3797
CdSb2Te,37.9896,32.2562,-5.7333
CaBPtO5,15.2357,11.8538,-3.3819
Ni2HgIO6,11.2599,10.4867,-0.7732
Nd5(YHo)2,23.0767,26.6249,3.5481
RbTl4Ag,39.5456,38.7954,-0.7502
PaNi2RhO6,12.8296,12.1264,-0.7032
SrNi2IO6,13.6901,12.0898,-1.6004
Lu2ZrSc,42.6878,39.1814,-3.5065
InCuRu2,16.2271,17.6561,1.4291
Tb2SiNi3,15.4053,15.6177,0.2123
Ta2SbTe,40.2922,40.141,-0.1512
Ba2YPtO5,14.2038,11.8052,-2.3986
ZrCuIrO6,8.8189,9.2837,0.4648
Th2PaPb,62.9815,66.0721,3.0906
Ni2SnTeO6,27.7665,22.4365,-5.33
SmPu(NiO3)2,10.3749,12.7266,2.3518
YHo2Hg,26.5546,25.5932,-0.9614
TbSiNi,0.0,4.9301,4.9301
MnP2Ir,43.9373,39.1826,-4.7547
ThPa2Pb,63.3653,66.7378,3.3725
NpNi(BiO3)2,10.9619,14.2803,3.3184
Zr2CuRh2,52.5309,40.8724,-11.6585
InCuGe,8.3041,10.5794,2.2752
Li7HgAu12,28.6748,29.2156,0.5408
AlNiAgSe,17.9142,16.4394,-1.4748
TlCd2Co,22.3845,23.6147,1.2303
TcNiIr2,46.4822,46.4618,-0.0204
CdPPb,15.6556,19.7754,4.1199
Tl2NiSbO6,21.6437,21.5155,-0.1282
Ac2Ho(AlHg4)3,9.1654,10.0198,0.8544
Ce2TmBi3,39.9449,42.2087,2.2638
Ba2YPbO5,9.9443,10.0452,0.1009
NiTe2PbO6,10.5301,10.7666,0.2365
Si2RhPb,33.2929,26.5031,-6.7898
Li2HfRu,34.618,27.2793,-7.3387
NiBi2TeO6,11.0552,12.7147,1.6595
Os2RhCl,35.2823,33.6673,-1.615
Y2(HoTm)3,25.5976,27.9658,2.3682
Tb2Y3ErRh6,34.0302,28.2239,-5.8064
BaCaIr,26.5503,23.0247,-3.5256
K(In2Pd)6,18.4304,18.8952,0.4648
SrVAg2,48.2453,38.7073,-9.5379
Ac2NiTeO6,10.7016,13.3633,2.6617
Cs(ZnB)2,15.4422,13.7499,-1.6923
NpTl2OsO6,20.4248,22.8092,2.3844
Pu(PaSi)2,37.5378,39.9034,2.3657
RhPbCl,35.3013,31.6168,-3.6846
ErPu3Ga4,34.5597,36.7115,2.1518
Er5ScCu4,23.9573,24.1711,0.2138
TaCu2Sb,25.7922,23.5843,-2.2078
PaBi2PdO6,23.8895,24.954,1.0645
Sm2InSi3Pt4,46.2576,32.911,-13.3466
Pu2PaSi2,37.6867,39.3964,1.7097
Ac6TePt2Se3,61.1975,54.7954,-6.4022
Ta2CuSb3,36.3638,32.5049,-3.8589
Ba(CaAl)2,10.6259,9.0846,-1.5413
AcCuBiAu,42.9005,45.6018,2.7012
TaBAs2Se,34.0163,32.6083,-1.408
Ni2IrRu,22.6212,22.3426,-0.2786
Cs3La2HfSe6,49.1776,38.3783,-10.7994
Cd2GaSn2,17.8197,18.885,1.0653
CsIn2Ag,21.3489,20.7947,-0.5542
Ce2Tm5Bi4,38.0727,39.7223,1.6496
LiTb2Gd,20.9318,23.5925,2.6607
CaTbGd2,22.6197,25.3756,2.7559
CaGd2Os,26.2529,29.9328,3.6799
Ta2CoCu,43.6149,36.5528,-7.062
TiTeRh3,39.7296,30.3876,-9.342
Cd2RuWO6,14.3202,13.3919,-0.9283
Sr2Ga5Pt,19.3705,16.6151,-2.7554
TbGdAg2,29.3352,28.0497,-1.2854
Mn2SbC,68.8135,54.311,-14.5024
Li4Co3Ni3(WO8)2,22.3368,18.6436,-3.6932
Gd2MgOs,26.0367,28.8071,2.7704
Er3TmGa4,18.4786,20.7462,2.2675
ReNiIr2,52.5697,45.72,-6.8498
CeAlSi2Ir5,34.539,34.6963,0.1573
LiBeOs2,22.1001,24.4549,2.3547
Ta2CoCu,43.9133,36.5528,-7.3604
Tc2PI,49.0704,42.8257,-6.2446
PtRhCl,47.9805,35.4694,-12.5111
GaRe3As,29.779,31.5944,1.8154
AcNd2(SmEr)2,31.8335,33.8823,2.0488
RbU(PbO3)2,9.3359,10.6452,1.3093
Rb2TmSbO6,13.0831,13.0914,0.0083
Th2SiBIr6,40.146,42.8264,2.6805
BaCaPb,18.8129,20.9366,2.1238
La3Y2ThBi6,47.1108,45.0287,-2.0821
Rb2SrReO6,13.1784,12.2708,-0.9076
AcLaI2,39.666,36.6321,-3.0339
Ce4NdTh,31.9122,34.2304,2.3182
Sr2Al3In4Ag,14.6518,14.7847,0.1328
Rb2ZrTcO6,18.0741,15.1681,-2.906
LiBePb,18.9879,19.9104,0.9225
AsIrPt2,58.2102,45.4652,-12.745
Ti2NbI,44.1057,39.6108,-4.4949
RbSr2MoO6,4.2792,5.4833,1.2041
RbSr2TeO6,24.4061,20.9319,-3.4742
Ta2PIr,36.2827,36.2718,-0.0109
Ac2IrPt3,65.8061,54.5704,-11.2357
La2SnRhO6,39.5092,33.2893,-6.2199
SmY2Ta,40.8792,37.4404,-3.4388
RbPr(TeO3)2,5.5677,3.2781,-2.2897
TaP2Ir,22.0664,22.2916,0.2252
TaRh(PbO3)2,17.351,17.4353,0.0843
ScBeSb2,27.4481,21.5647,-5.8834
AsIr2Pt,46.7529,44.4245,-2.3284
RuPtC2,60.5488,38.3678,-22.1811
BeSbC,35.9114,29.9763,-5.9351
TbHf(UAs2)2,42.4809,39.4419,-3.0391
TiNbTeI2,47.5301,41.538,-5.9921
Ir3Pb,46.3958,50.4068,4.011
Bi2PtRhO6,24.6078,21.5763,-3.0315
BaCaTa2,20.7747,23.098,2.3232
Pr2ErRhO6,3.2335,2.0638,-1.1696
PtRh(PbO3)2,24.3523,20.7953,-3.5571
Y2TlSb,30.1672,30.4439,0.2767
EuSnAu2,35.294,37.3778,2.0838
CaTbInAg,20.3086,20.8264,0.5177
Ac2SnRhO6,37.1873,33.0073,-4.1799
Ir2Pb,40.1974,49.5696,9.3722
Cd2SnSeO6,29.386,24.3924,-4.9936
Tl2BiSO6,21.2168,22.0871,0.8703
Tb8Al2Bi,24.6203,26.3881,1.7678
ZrMo2As,26.3453,25.735,-0.6103
ErCr2SiO6,6.8545,6.9756,0.1211
ZrCuSeN2,31.7726,26.2464,-5.5261
Sr4Zn3Ga,10.4015,11.3531,0.9516
Ta2CuAs,14.9447,19.0722,4.1275
CdSi2Te,22.9498,20.5449,-2.4049
NdRu(PbO3)2,9.5087,12.1395,2.6308
TlCd2TcO6,12.381,13.9048,1.5238
OsRu(PbO3)2,12.7153,13.078,0.3626
KRb3Au,8.1738,7.7222,-0.4516
Bi3Pb,54.1824,55.619,1.4366
CdSiTe2,29.7227,27.8897,-1.833
NiPd,12.1617,5.1879,-6.9738
ZrCdGaCu,34.6437,29.3766,-5.267
CdSi3Te,22.4711,16.8595,-5.6116
TaTe2AsSe,48.7171,45.2231,-3.4941
MnC2,66.9059,48.0427,-18.8632
Ga2Ag2Bi,23.8397,22.9723,-0.8674
V2O5,28.9961,21.7303,-7.2658
PmPrRh2,28.9128,24.2768,-4.6361
Y2NbC2,64.5845,49.6248,-14.9597
BaTl2SbO6,20.2536,20.4917,0.2382
Rb2InSO6,14.5671,14.3155,-0.2517
NdZrCuPt,54.3485,44.1403,-10.2082
Tb5(YHo)2,24.1565,27.6813,3.5247
TlCoCu,42.9776,37.387,-5.5907
NaSrBiSe3,52.5433,43.4335,-9.1099
Dy2ThPaTc2,54.3574,53.8309,-0.5265
RbLiHoI5,14.6621,16.2131,1.5511
Sm6YTm2Sc,19.149,21.4122,2.2632
YCr2SiO6,12.9001,11.3813,-1.5187
TlBi2SbO6,26.2597,26.4097,0.15
Nd2ScCoO6,21.5569,22.2588,0.7019
RbAcSeO5,7.2069,9.1741,1.9672
Pm2ThSi2,22.2994,23.7644,1.465
Hg(SbBr)2,32.1858,28.8633,-3.3225
LiBePt,30.6475,22.0317,-8.6159
CaSmSb2Pd5,23.8031,21.6639,-2.1392
Sc2MnCrO6,80.3232,71.0861,-9.2371
BeSnPb3,39.4033,37.4451,-1.9582
Ca3BeIn,13.5491,10.7434,-2.8057
RbFeCu2,19.7542,15.5733,-4.1809
Cs(SrGa)2,13.693,14.5116,0.8186
Tc2NiSb,56.9815,48.5826,-8.3989
PuPa2Ga7,26.6105,28.0378,1.4273
CaBeIn2,18.9478,15.7861,-3.1617
Cs2PmScO4,33.3218,33.4994,0.1776
Rb(Zn2Si)2,9.7355,8.6796,-1.0559
P2Se,13.7405,11.8303,-1.9102
BaCaW2,21.8498,25.0789,3.2291
Cs2AcScO4,38.3497,38.3319,-0.0179
AlCoMo2,16.6621,15.316,-1.3461
RbW,0.0,7.9236,7.9236
TmLuAl2,17.1664,19.9237,2.7573
PN,0.0,28.6573,28.6573
TaBeVSe2,63.414,49.8777,-13.5364
CaBr,4.2227,7.2975,3.0748
TePtAu,59.7363,50.255,-9.4813
Te2PtAu,51.2369,44.6264,-6.6105
CrIn2SiO6,12.1144,11.1986,-0.9158
Tl(OsRu)2,33.9617,37.2052,3.2435
ScFe2SbO6,41.3322,36.2478,-5.0844
VGa2SiO6,21.4341,18.0527,-3.3814
VSi(NiO3)2,15.3214,13.4699,-1.8515
TePtAu2,56.641,50.0908,-6.5502
Co2C,20.4067,17.1191,-3.2876
ScNi(BiO3)2,30.4757,30.1384,-0.3373
ScBi(PbO3)2,34.545,34.2573,-0.2877
NiRuC2,39.4469,31.3768,-8.0701
AlCo2Mo,14.5168,13.1779,-1.3388
Tm2LuAl,24.3908,27.5746,3.1839
Tb3Y(TmP3)2,17.7147,19.0265,1.3118
Y2Ho2Er2Pd,27.823,28.6787,0.8557
Ac2ScNiO6,30.1458,30.9693,0.8235
ScNi2TeO6,25.9556,24.2095,-1.7462
Nd2ScNiO6,22.0985,22.6578,0.5593
Tb2ScNiO6,22.3789,22.9313,0.5525
La2ScNiO6,39.6373,36.7815,-2.8558
Ti2TcSb,29.5273,28.6941,-0.8333
ScNi2WO6,26.3301,25.8313,-0.4988
ScNi2PbO6,32.2249,30.4233,-1.8017
HfGeRu,38.2118,45.2306,7.0188
CaMnP4,28.9796,24.2118,-4.7678
CsLaI2,26.517,23.9672,-2.5498
ScTa(PbO3)2,36.9201,35.7271,-1.193
BeCrRh2,20.2841,16.3249,-3.9592
BeCr2Rh,16.6276,13.4847,-3.1429
CaHfRu3,40.3646,33.1792,-7.1854
Y3Ho(Pu3Th)2,53.0344,54.7781,1.7437
AcAuNO5,7.7399,10.6115,2.8716
Hf2GeRu3,57.0476,45.4336,-11.6141
YHo3Pu4,48.6097,50.7816,2.172
SrOsRu2,22.6085,25.7258,3.1173
MgAs,0.0199,0.4796,0.4597
ScMn2VO6,94.0664,82.133,-11.9334
MnAlAg2,41.3399,34.2252,-7.1148
CaAuBr2,18.0103,19.1773,1.167
HgMo4Se,18.8062,19.031,0.2249
ThPb3,55.7882,58.6859,2.8977
Si2OsRu2,17.8828,15.8862,-1.9966
Ba2CePrO6,3.7814,4.1485,0.367
BaCe2EuO6,7.0,7.2208,0.2208
Na(InSb)2,27.6569,26.2766,-1.3803
IrPdRu,31.6415,30.5228,-1.1187
RbTiIr3,29.0077,29.727,0.7193
BaY4W,39.747,30.6417,-9.1053
Ba2TbCeO6,12.5415,10.305,-2.2365
ReRhCl,32.5606,29.4528,-3.1078
YScTl,23.7131,25.5878,1.8746
Ba2YErS4,44.159,34.5799,-9.5792
CeEu2WO6,12.8429,14.4461,1.6032
EuTlPbAu,44.3571,46.2174,1.8602
Ac2CdSeO6,18.294,19.8996,1.6056
Ca2NiF,6.3503,5.0251,-1.3252
SiOsRu2,28.913,27.2316,-1.6814
SiOsRu2,28.6485,27.2316,-1.417
Sr2ErSbO6,7.4745,9.8859,2.4113
Cr2GaSiO6,11.9155,10.355,-1.5604
Sr2HoTcO6,8.3292,8.1235,-0.2057
ZrCu2B,38.6571,30.6265,-8.0306
Co2SiTcO6,23.5837,20.9458,-2.6379
CrRu3W,44.0652,33.1184,-10.9468
Y2NbC2,73.6165,49.6248,-23.9918
ZrRe2Ge,52.1501,48.1622,-3.9879
Cr2SiTcO6,13.8347,12.0548,-1.7799
LiTmAl3,6.2999,8.536,2.2361
Ba2SiPd2,5.7336,6.1182,0.3846
Si2PIr,25.7143,21.6971,-4.0172
RbMnBr3,21.7954,20.3612,-1.4343
YHo3Al,27.8511,27.1746,-0.6765
CsAgSnTe6,33.319,31.1001,-2.2189
NdSm3(ClO)4,7.5626,9.6725,2.1099
TaNiAg,24.9264,26.08,1.1536
YHo2NbN4,30.2438,27.9488,-2.295
V2SiMoO6,34.444,27.6706,-6.7733
Er2ThRu2,31.0049,34.2876,3.2828
RbZn2Br,5.3396,6.7097,1.3701
Al2P,20.1303,19.1564,-0.9739
VFe2SiO6,19.5043,15.2933,-4.211
Ta2PdC2,34.1642,30.8697,-3.2945
SmU(PbO3)2,10.5877,14.7667,4.179
SmBi2PtO6,21.8733,20.6151,-1.2582
Er2Be4Si3Ru,24.6295,21.8011,-2.8284
HfMoP,37.2825,25.1167,-12.1658
Rb(ZnGe)4,5.8389,6.0793,0.2404
BeCd2Sb,22.1302,19.46,-2.6702
SmNpTl2O6,10.8777,14.9394,4.0617
Ba4Na2Pd,9.4345,8.6758,-0.7587
BeCd2Sb,22.1179,19.46,-2.6579
NdBrO,9.7579,12.9319,3.174
BeCd2Sb,22.0553,19.46,-2.5953
Y2ScTlRu,23.4419,21.4747,-1.9672
Sr2CePuO6,6.8287,8.5194,1.6906
BeCdSb2,28.4338,23.0594,-5.3744
Sr2CeHfO6,10.6635,10.422,-0.2414
SrTlSi3,31.4279,23.5117,-7.9161
Sr2CeSmO6,0.0,2.3281,2.3281
Ce(HCl3)2,0.5784,3.4622,2.8838
KCuRe2,26.0241,27.7926,1.7686
FeNiSe2,48.0124,35.6425,-12.3699
Sr2CdTeO6,26.0135,22.7315,-3.2821
Sr2NpCdO6,10.7412,11.3106,0.5694
LiHfNb,74.3273,58.0537,-16.2737
Bi2Sb2Au,49.52,46.9644,-2.5557
YSc2TlRu,21.6936,19.7531,-1.9405
BiSb3Au,47.8232,41.9213,-5.9019
YScTlRu,25.7694,24.7037,-1.0657
TbLuInOs,30.1797,34.0622,3.8825
AcAl4Pt,22.138,19.7963,-2.3417
Zn2InF,8.2058,9.7371,1.5313
Pr2NdSi2,2.6699,3.3204,0.6505
AcAlPt2,60.5195,49.0527,-11.4669
SbRhCl,32.4585,24.8811,-7.5775
InBi5Pt4,64.8918,54.1741,-10.7177
Li2BeOs,11.6333,12.8552,1.2219
Ac2AlZn4Pt3,42.4013,34.5502,-7.8511
TlCoHg,19.9203,20.8422,0.9219
In(BiPt)2,56.7941,46.9345,-9.8596
Sr2ErNbO6,9.4513,11.4007,1.9494
Sm3Y(PuTe3)2,39.1833,38.8605,-0.3228
Sm5(Y2Er)2,21.9766,24.0724,2.0958
Sr2PmPtO6,5.9639,6.9565,0.9926
TbSi2Ni5,11.4537,11.0459,-0.4078
CsMnSi3,36.6451,27.0037,-9.6414
DyI2,23.2639,26.6761,3.4121
Y2TeRu2,20.0374,15.6102,-4.4272
Sr2TbPaO6,1.2172,6.5323,5.3151
Sr2DyTcO6,13.5844,10.8648,-2.7196
MgCdSnBi,24.3171,25.6241,1.307
Tb2Cr2I,12.3233,15.5089,3.1856
Rb(ZnGa)3,5.4223,5.8661,0.4438
NaPaCd4,28.3139,28.6556,0.3417
SrCd2IrO6,14.9257,14.5786,-0.3472
SrPu(BiO3)2,22.5795,22.9024,0.3229
Sr2TbPuO6,6.3506,8.9109,2.5603
SrTcAgO4,22.025,20.1548,-1.8701
SrBi(PbSe2)2,58.6032,50.7658,-7.8374
Sr2YBiO6,8.5648,10.6488,2.084
AcTmPt2,67.4425,49.0815,-18.361
V2SiIr,70.9982,59.7619,-11.2363
Sr2NpUO6,5.3381,10.205,4.8669
Be3ReW,23.9203,22.1164,-1.8039
Sr2AcWO6,15.6122,16.4234,0.8112
Sr2PuUO6,9.8489,12.6128,2.7639
Ba2AgP,14.5744,12.4498,-2.1246
Ba3AgP,14.7378,11.3281,-3.4097
ReAs2Pb,28.5647,30.8544,2.2897
Ce4FeSb,24.0194,25.0852,1.0658
TbPmNi,19.0941,22.5762,3.4821
ReAs2Pb,29.0937,30.8544,1.7606
ReAsPb2,39.657,41.7066,2.0496
ReSiPd3,22.6449,22.5818,-0.0631
ReAsPb2,39.0719,41.7066,2.6346
PC2,38.5075,23.9886,-14.5189
Re3SiPd,33.5143,33.1344,-0.3799
SrPt(PbO3)2,14.4696,14.5191,0.0495
PrLuSb,24.0935,22.9136,-1.1799
CaGaFeSn2,23.2384,20.0229,-3.2155
Sm6As2S3,29.3812,26.7944,-2.5868
Ac2Ce(AsO)2,23.7472,25.521,1.7739
Zr2CuRu,55.148,45.8562,-9.2918
Y9(Co13P6)2,28.5627,21.5356,-7.0272
SrRh(PbO3)2,10.1945,11.6676,1.473
SrCd2RhO6,5.4007,5.5988,0.1982
SrPr2RhO6,2.6118,1.05,-1.5617
SrPm2HfO6,18.6693,17.5182,-1.1511
CsGeTe2,29.3338,29.4527,0.1189
TaAsSe2,50.3207,45.8821,-4.4386
Sr2CoTcBi,36.8931,34.8898,-2.0033
TlMoOs2,41.3457,36.9686,-4.3771
Y2AlRh2,30.0907,22.9,-7.1907
ZrTiCu3,27.6762,22.3545,-5.3218
Ac2TbDyO6,7.5028,12.411,4.9082
Ac2TbHfO6,18.7245,19.1978,0.4733
YAgSn,31.0833,24.4485,-6.6348
TlMoOs,41.0376,40.163,-0.8746
AcTmAsPt,47.7492,43.1863,-4.5629
Ba2DyTcO6,2.7834,4.648,1.8645
CsAc3(TeO3)4,19.6757,18.9028,-0.7728
Ac2TbTmO6,7.5848,12.7311,5.1463
LiLa4Br,42.9116,29.3789,-13.5327
Zr2Br,62.4652,54.5245,-7.9407
Pr2ErSi2,3.5405,4.2383,0.6978
AcHg(TeO3)2,9.8628,9.6849,-0.1779
Ba2Ce(TcO4)3,15.9706,16.1655,0.195
Zr3GeC,72.4722,56.236,-16.2362
PSeCl2,16.876,14.5692,-2.3067
Ca3PrNi,9.8827,8.4827,-1.4
KSbIr,34.9804,32.1834,-2.797
HfBiRu,71.2749,60.1626,-11.1123
Ba2PaTcO6,13.953,14.042,0.089
RbLiBr2,10.8829,11.953,1.07
Sr2AgAu,23.518,24.4973,0.9793
YAgBi,33.3401,33.0452,-0.2949
AcTbPr3Sm,12.7368,15.6106,2.8738
Cd2TcRhO6,17.8678,15.8508,-2.017
ZrPCl2,23.0882,19.9903,-3.0979
Ba2TcRhO6,5.9819,5.7242,-0.2577
Ca3SnTe4,24.2468,23.7382,-0.5086
CaPr2Ir,16.8538,15.4128,-1.4411
Ca3SnTe4,24.2356,23.7382,-0.4974
K2BiW,26.5343,29.4309,2.8965
Ce5(TaSe6)2,39.4405,34.7255,-4.715
CuRePS2,49.5368,37.646,-11.8908
Cd2NiAs,23.3416,20.8946,-2.447
Y4AgBi,17.8595,19.7115,1.8519
ThScCu2,36.6908,34.5362,-2.1547
InW2,24.4833,33.144,8.6607
ThCu2Ru,24.5793,27.5224,2.9431
NdHoNi,19.6116,22.9713,3.3597
Be2SnW2,17.3799,20.2695,2.8896
Y2Zr2Pd3,49.0906,41.908,-7.1826
Y(AgSn)2,32.0341,26.4279,-5.6062
NbSbPt3,91.9628,66.1751,-25.7877
CaPbBr2,26.7373,24.5133,-2.224
Be2AsPb,20.1906,19.4199,-0.7707
NaRu3Pb,27.1737,27.6038,0.4301
TbTe(PbO3)2,10.9572,13.2575,2.3003
HfOsRh2,70.4182,54.5348,-15.8834
Be2AsPb,19.977,19.4199,-0.5571
AcTi(BiO3)2,17.3786,18.3187,0.9401
InCuTe,23.0684,23.8573,0.7889
CsTi2InO6,6.5118,5.6947,-0.8171
Tl2TePbO6,20.134,20.9768,0.8428
UTl2TeO6,20.869,20.8967,0.0277
EuTmPb,36.899,39.1391,2.2401
LiLa2Br6,17.4477,13.9016,-3.5461
Sr2Pb3,33.1264,35.2928,2.1665
ZnBiBr2,20.9947,22.9674,1.9727
NpTiCr2O6,13.6661,14.4017,0.7356
ErAl5Ru,8.1166,10.0575,1.9409
TcBr,26.2764,25.1313,-1.1451
Bi2SbW,49.1204,48.5112,-0.6092
ZnTcBr2,31.7901,28.5916,-3.1985
RbTi(GaO3)2,10.6432,10.225,-0.4182
Ac2TmHfO6,19.0774,19.6098,0.5324
Zr3CdCu,65.56,52.8441,-12.7159
ZnTcBr2,31.5173,28.5916,-2.9257
Cd2FeTe,20.3323,21.4014,1.0691
CdFeTe2,25.8133,25.3003,-0.513
ReSi2,23.17,21.4642,-1.7058
Ga3Pb5,36.0453,37.7021,1.6567
Ac2PmErSe5,45.6311,41.1427,-4.4884
Cd2FeTe,20.4374,21.4014,0.9639
ScSi2F,29.5313,25.7102,-3.8211
Pu2Ag2Pb,44.3018,44.6826,0.3807
TaIn2Co,42.1642,34.5884,-7.5757
CdReSb2,62.2921,53.877,-8.4151
Ta2BeSe,27.2217,28.4409,1.2192
TiTl2BiO6,10.2944,11.665,1.3706
Tb3In3Ru2,21.0808,22.936,1.8552
OsSeO2,17.1501,16.667,-0.483
Fe2(HPt)3,28.479,19.509,-8.9701
OsPb2,44.0078,49.9825,5.9747
CdReSb,74.3115,60.4768,-13.8347
ZrGeC,32.3463,25.8672,-6.4792
AcTmTl2O6,18.2436,20.893,2.6494
Si2Tc2Ir,43.2012,37.8727,-5.3286
Cd2ReSb,60.6575,50.2644,-10.393
Ag3(SnS3)2,39.3182,29.4331,-9.8851
HfVCr2O6,29.9007,23.0536,-6.8471
InCoW,23.8146,25.6477,1.8331
Sr2Ac3Pt4,57.99,46.7454,-11.2446
NaTaZn2,16.8154,18.4688,1.6533
Pm2VAgO6,19.5113,18.1718,-1.3396
ZrBi(PbO3)2,18.0744,19.2426,1.1682
Sm5Y2Th,21.916,25.0018,3.0858
Tb2Sm(SiNi)2,19.1757,17.5958,-1.5799
SbPOs2,33.3795,33.5229,0.1434
PmPrHf,48.4088,41.0426,-7.3661
CaRhBr2,18.6874,15.5694,-3.118
BaYB,61.7439,52.905,-8.8389
CsSrAl2,9.9778,11.6128,1.635
Hf2TcBi,108.4771,86.5638,-21.9133
Os2Pb,37.8885,47.8283,9.9398
NaLiAg4,24.9825,20.4765,-4.506
MgGeAs3,10.9333,9.9804,-0.9529
TaSi2Se,29.2152,24.7976,-4.4176
VCr2PbO6,21.4259,18.7018,-2.7241
CaRuBr2,15.8738,14.1267,-1.7471
VCu2RhO6,18.9769,15.539,-3.4379
Zr6GeC,82.2243,65.0094,-17.2149
VCr2SnO6,37.0567,29.3482,-7.7085
VZnCr2O6,22.5321,17.7311,-4.801
Ba3Y2O6,18.1035,16.5723,-1.5312
Mn2VBiO6,74.2145,65.4627,-8.7518
La3Ag3Au,41.9448,32.1634,-9.7815
NaZnSb2,27.7172,23.0005,-4.7167
EuBrO,11.6859,13.6168,1.9309
TlPOs2,35.5989,38.1239,2.525
Ac6Pt2RhS,66.2041,58.8149,-7.3892
Be3SnW,20.9967,18.057,-2.9397
BaYSi,42.7985,34.5886,-8.2099
Ac8PtRh3S4,59.9046,52.3995,-7.5051
TaTlCd2,32.687,33.5784,0.8915
Tl2BiWO6,15.0987,17.2726,2.1739
Ta2CrPd2,35.6011,30.4147,-5.1864
CaMgZn2,6.2086,6.9515,0.7428
Na(CuRu)2,10.2832,12.524,2.2408
Ac3Ag3Sn,39.7593,40.1352,0.3759
BaYSi2,35.5896,27.2048,-8.3847
Pm2PrSi2,8.6213,9.7751,1.1538
YNb(PbO3)2,24.425,24.2109,-0.2141
Ac2NdYO6,14.287,17.1784,2.8914
CsScGe2,20.2888,16.4604,-3.8285
Sn2SbN,31.2426,27.3003,-3.9423
ZnMoSe2,29.8597,25.4147,-4.445
CePr2Au,15.3506,18.2306,2.88
ZnIr2Pt,44.4254,41.7792,-2.6461
Rb2CaMnCl6,16.5463,13.0736,-3.4727
CaTaBr2,16.2054,17.361,1.1556
Zr2GaCu2,45.2111,36.4826,-8.7285
Os3RuS,40.9598,39.5292,-1.4306
Be2BiBr,13.6018,16.1174,2.5157
Tm2HfNpAs4,38.2569,35.2371,-3.0198
SmZrGaCu,35.9809,31.6555,-4.3254
PmPrNd2,17.3385,19.8869,2.5484
Cs2Te,29.2943,29.1594,-0.1349
CaTcBr2,30.2307,27.6789,-2.5518
SrNpZn2O6,12.7898,11.6032,-1.1866
RbSc2Si,23.806,17.2632,-6.5428
BaYB2,46.8758,39.7821,-7.0937
SrPuZn2O6,24.6167,20.8038,-3.8128
RbAgP2,13.4159,8.9261,-4.4897
ZrBi2PbO6,24.8486,24.933,0.0843
HoZrGaCu,36.7465,32.358,-4.3885
BaY2Si,50.6754,42.4782,-8.1972
RbScSi,17.1145,14.8757,-2.2388
CaTcBr2,29.8859,27.6789,-2.207
RbScSi,26.0388,14.8757,-11.1631
ZrGa2CuO,39.0926,31.4078,-7.6848
RbScSi,25.2212,14.8757,-10.3455
CaTeBr2,16.6598,17.3123,0.6525
K3LaF6,11.1156,9.815,-1.3006
AcSmPt10,81.3257,56.8277,-24.4979
ScFeSb,37.5268,32.3444,-5.1824
ZnSb(PbO3)2,21.8559,20.8237,-1.0322
InCoAu,26.2597,27.4848,1.2251
CrGaRu2,6.5181,10.487,3.9689
RbCu(AsO3)2,4.8464,4.738,-0.1084
ZnRh(PbO3)2,16.0456,14.9507,-1.0949
Pb7Au5,50.3527,51.4051,1.0523
CsNi3C,23.9621,20.0863,-3.8758
K2PbF,17.1838,17.6285,0.4447
SnBiMo,34.2411,29.5576,-4.6836