Formula,E_hull_DFT (eV/atom),E_hull_ML (eV/atom),Delta (ML - DFT)
Ba2CdTe,14.4036,14.8469,0.4433
Cs3LiIn2Br9,15.6615,15.5042,-0.1572
ThBRu3,22.5351,25.8531,3.318
AlRePb2,37.9832,39.7612,1.778
AlRe2Pb,34.5237,37.5455,3.0218
SmTm6Al,26.5992,28.4439,1.8446
Al2RePb,25.3205,27.8356,2.515
LiLaAs2,17.4264,14.7175,-2.7089
ReSi2Hg,18.1055,15.7821,-2.3233
CsBe4Al4(B3O7)4,10.4442,8.9948,-1.4494
Cs(FeSb3)4,42.4307,33.3525,-9.0782
ZrCrFe,50.7429,39.6507,-11.0921
CdTeIr2,37.6354,39.4227,1.7873
Tb3I7Br,21.5652,23.5205,1.9553
NaY2MgCo,28.4127,23.1945,-5.2182
Y2Cu2Pb,39.3333,34.4548,-4.8785
As2OsPb,23.1289,26.9888,3.86
LiAcPrEr,22.6438,25.2455,2.6017
InSiMo2,16.5563,16.9993,0.443
Be2SbIr,22.2611,22.3823,0.1212
YCu2Pb,32.8699,30.6983,-2.1716
Y2BiPb2,31.882,34.8595,2.9775
Be2SbIr,22.2976,22.3823,0.0847
BeSbIr2,33.1002,33.5349,0.4347
SrV(AsO4)2,14.2249,11.6034,-2.6215
CdTeIr2,37.6473,39.4227,1.7754
NaYMgGe2,16.1387,13.0163,-3.1224
BeSb3Ir,36.4765,30.9598,-5.5166
Ba4CaV4Cu2F28,17.7361,14.3769,-3.3592
Ca2As3Pb3ClO12,11.123,10.7134,-0.4096
LiAs2Pb,18.3591,20.1584,1.7994
LiAc2TlPt,49.0376,46.8828,-2.1549
AsOs2Pb,37.4318,40.0736,2.6418
SmPAu2,30.2192,33.1494,2.9302
AcTbPt10,81.4656,56.9504,-24.5152
As3OsPb,27.1814,27.5669,0.3855
SrZrCl,50.5806,44.2827,-6.2979
Cs2AsBr6O,13.0688,13.3971,0.3284
Sc2Ag2Pd,21.0584,18.5017,-2.5567
AsOsPb2,39.6737,42.1528,2.4792
Hf6CdFe2,89.1323,63.1487,-25.9836
TbCe2NdBi4,39.0916,41.3867,2.2951
YbEu2MoO6,15.5342,16.7271,1.1929
NbTl2I,63.8441,57.7604,-6.0837
RbTlZn2,15.8636,16.5701,0.7065
ScTl3V,58.2289,52.9476,-5.2813
Tl2CrP,52.6148,47.6608,-4.954
Sc2InPb,21.5752,22.5238,0.9486
In2GaBr2,11.242,12.3967,1.1547
PmErPu,42.1773,45.6838,3.5064
CuSiTe2,23.7746,22.3293,-1.4454
CuSiTe3,26.8111,24.5313,-2.2797
TlCo4Rh,21.2505,20.958,-0.2925
PrNd7Sc2,18.3797,19.9767,1.5971
CaTmMn2O6,59.7004,53.7218,-5.9786
AlIn2Ga,10.0838,13.0107,2.9269
Y6CuBi2,27.3944,27.5072,0.1129
CuHgP2,4.7763,4.1036,-0.6726
La(AlBi)2,33.2915,31.1374,-2.1542
SiMo2Os,28.5004,24.5415,-3.9589
LiReAs2,15.4077,17.7581,2.3504
Rb2Zn4Bi,12.9657,13.0402,0.0744
CrReRh2,36.6937,31.7506,-4.9432
LaInAs2,22.2785,19.5628,-2.7156
Li2(SmAu)3,22.5294,24.4971,1.9677
SrCu2Te,13.5459,15.1072,1.5612
Co2SiIr,17.4251,18.6167,1.1916
Y2CuBi,29.4714,29.7898,0.3185
Cu2TcPt2,51.2487,39.4371,-11.8117
Ge(Te2P)2,26.5428,25.8657,-0.6771
SmGa5Ru,12.0067,12.9599,0.9532
LiNp2PaSe6,48.8638,43.9377,-4.9261
Tl3MoRu,39.4321,39.4849,0.0528
As2Br,6.6099,9.7981,3.1882
Pm3ErGa4,16.5994,19.0977,2.4983
TlMo2Ru,27.8526,28.4486,0.5961
PrSmO2,10.8888,12.2832,1.3944
TlMo2Ru,27.8197,28.4486,0.629
HfTaSi2Se,52.4353,39.7973,-12.638
LiPm2PaS6,44.3577,35.4636,-8.8941
AlVGa,46.5577,38.7997,-7.758
CaPm(TmHg2)2,10.7477,12.5734,1.8257
Mn2ZnBi2,58.2537,51.268,-6.9857
CeZnPb,16.0861,22.4209,6.3348
Al2CdPt,28.4941,22.1392,-6.3549
ZrSbAu2,59.153,52.6105,-6.5425
PrNbSi2O7,16.262,12.9672,-3.2948
Cu2Bi2Pb,31.7688,33.5698,1.801
Mg2ZnH4,5.289,4.1473,-1.1417
Co2SiIr,17.5728,18.6167,1.0439
RbPtI,34.1784,28.2376,-5.9408
MnZn4Ir,27.5119,23.9219,-3.59
Li2OsAu,22.8575,24.4653,1.6078
LiOs2Au,33.2311,36.5801,3.349
YCu2Pb,32.8625,30.6983,-2.1642
LaBe2Pb,26.4344,23.3697,-3.0647
ZrReSb2,57.1349,48.9547,-8.1802
LiRh3Au,40.3998,31.4912,-8.9086
Li2(SmAu2)3,32.1025,33.2848,1.1823
SiMo2Pt,33.5356,26.6145,-6.9211
TlCdTe,37.4648,37.1135,-0.3513
Tl2CdTe,40.632,40.8768,0.2449
VCrRu2,42.4299,37.4725,-4.9574
ReTe2PtI,48.5145,41.2562,-7.2583
CuBiPb,38.143,39.7676,1.6245
ReTePtI2,44.8492,38.461,-6.3882
La2BePb,38.829,31.4921,-7.337
SiRuS2,39.5474,29.9586,-9.5888
LiCaLa,10.645,8.7021,-1.9429
SiMo2Pb,24.8922,25.9264,1.0342
BeSbMo2,24.3693,19.2709,-5.0985
LiScRe2Au,45.8765,40.2705,-5.606
La2BePb,39.133,31.4921,-7.6409
LiReAu3,37.4021,38.3629,0.9608
TbNd2SmHo2,22.1046,26.3938,4.2892
La2BePb,39.0623,31.4921,-7.5702
LiRe2Au,32.8359,35.7308,2.8949
Y4Pb5,34.9821,37.0217,2.0396
Y5Pb4,30.8198,32.4514,1.6316
AcCe2Pt9,75.7423,54.3994,-21.3428
Cs2Sm2TeO6,22.0102,17.2753,-4.7349
AlInGa,10.5347,12.1971,1.6625
SiMo2Pb,24.8722,25.9264,1.0542
ReTe2Pt,53.9511,46.8442,-7.1069
ReTePt2,65.6781,52.2715,-13.4066
Tc2O5F4,0.0,0.0,0.0
ReTePt3,71.264,52.7916,-18.4724
Y2Cu2Pb,34.2993,34.4548,0.1555
YBiPb2,43.0923,44.8765,1.7842
BeTcN,53.5481,44.1622,-9.3859
Re3PtI,49.0754,43.6305,-5.4449
Y2Al4ZnAu3,30.4057,27.5689,-2.8367
YCuPb,36.2014,34.0105,-2.1909
Tb2LuGa,23.5527,25.8348,2.2821
ScHgH5,0.9187,1.6126,0.6939
CrFe2Os,33.2439,26.5653,-6.6786
ZrTcOF2,40.7621,33.0185,-7.7437
BaMnP2,30.6028,25.0233,-5.5794
CuAsBr,13.749,12.4821,-1.2668
TaNbSe2,68.5022,60.0384,-8.4638
Tb(Cl3F)2,6.4556,7.7855,1.3299
LaIr3Ru,43.7682,39.0335,-4.7347
SiMo2Pt,33.7307,26.6145,-7.1162
Ce(TaSe3)2,42.1944,37.0727,-5.1217
Cr2FePb,29.3119,25.5617,-3.7502
NiAs2Br,19.2807,16.7232,-2.5576
CrFeOs2,34.4086,32.9571,-1.4515
LiLa2InOs,33.9611,26.7685,-7.1926
CrFe2Pb,29.496,24.3966,-5.0994
CrFe2Os,33.2638,26.5653,-6.6984
Th4Al12Pd,18.2447,19.9291,1.6845
AcNdPt,41.7143,46.2233,4.509
Pr2ZnSi3Pt4,39.2871,26.195,-13.0921
ReSiMo2,24.369,23.6586,-0.7103
Re3Pb,43.7457,49.6593,5.9136
CePrGe2,9.0369,12.1232,3.0863
Sr2TcRu,35.0336,32.9916,-2.042
AcNdPt10,81.2914,56.7634,-24.528
Ac3Nd3Pt2,49.9062,45.0245,-4.8818
ReSiMo2,24.4845,23.6586,-0.8258
BeSbMo2,24.2387,19.2709,-4.9678
CuAs2CBr,23.6367,18.3717,-5.2649
Mn2SbSe,72.8602,58.8586,-14.0016
Ta2CrW,55.8828,50.9096,-4.9732
SiMo2Rh,23.4769,21.5175,-1.9595
Re2NiOs,51.6582,44.7721,-6.8861
SiMo2Ru,18.479,17.9155,-0.5635
LaTaSi2O,36.9535,31.362,-5.5914
K3BiO3,0.0,1.9888,1.9888
Pm2SmAu,30.2272,33.4272,3.2
NaAcN,29.788,30.4837,0.6957
CePr5Bi4,21.3955,23.3599,1.9644
CoIrBr,28.9893,27.1326,-1.8567
YCuBi,41.9078,38.6762,-3.2317
SiMo2Ru,18.5206,17.9155,-0.6052
Re2TcNi2,58.9289,42.845,-16.0839
BaSb2Mo,22.5026,18.4294,-4.0732
NaScTcO5,38.2406,34.1188,-4.1218
SiMo2Ru,18.6892,17.9155,-0.7737
LiSmAsAu,19.8835,22.219,2.3355
K3PmNb2O9,21.2758,18.393,-2.8828
CaSmAlAu,19.6698,22.1414,2.4716
NaCa2ZnPt,27.1879,19.5149,-7.673
AlInGa4,9.5657,10.5674,1.0017
SmMgAu2,29.8585,31.9639,2.1054
PmSmAsAu,25.907,29.095,3.1879
Tb3(Tm3Sc)2,24.9324,28.4237,3.4913
Ac2NdPt9,79.066,57.7856,-21.2804
SmTlAu2,38.1473,40.7898,2.6425
CaAc2Ga3Ir4,35.678,35.9991,0.3211
HPb2IO6,19.6399,18.9349,-0.705
La4Te2AsIr,41.6852,33.222,-8.4632
PaH(PbO3)2,16.0921,17.7577,1.6656
Nd3(Y3Sc)2,19.2426,19.8494,0.6068
Ac2NpGe3Ir4,39.4254,41.9839,2.5585
Sm2ScSn2,19.5323,20.0756,0.5433
LaPr3As4,8.1736,8.1321,-0.0415
PrSmLu2,21.92,25.1499,3.2299
Pm(SmSc)2,18.8357,19.6996,0.864
SrYPb,29.2901,29.3754,0.0853
SrYPb2,34.871,35.3329,0.4618
LiTb2Lu,21.9731,24.7619,2.7887
MgNiOs,4.8976,14.8591,9.9615
LiHfAu,63.588,50.9995,-12.5885
Tb4Al12Ru,8.8183,10.4314,1.6132
Zn2Ga2Te,14.9085,15.1034,0.1949
CePu2F6,21.7835,22.6138,0.8303
SrTi2Fe,18.1557,16.7905,-1.3652
SrYPb,29.3186,29.3754,0.0568
Sm5DyPb6,38.5156,40.1683,1.6527
Ba4SiPb,11.6718,11.5598,-0.112
Bi2SbHO6,15.7508,16.9828,1.2319
CdPbW2,38.2707,41.2831,3.0123
Sc4Al12Pd,5.7517,5.6884,-0.0632
SrYPb,29.4284,29.3754,-0.0529
LiTcAs2,28.1491,26.6603,-1.4887
SiMoOs,28.2708,26.5851,-1.6857
SiMoOs,28.7375,26.5851,-2.1524
Sm4Al12Hg,7.6114,9.1052,1.4938
CaGa2Cu3(RuO6)2,10.6519,10.5326,-0.1193
CaLaTaFeO6,17.3014,16.2966,-1.0047
NaOs,3.7444,8.1224,4.3781
Sr2TlSn,21.0988,23.2165,2.1177
BaVAg,41.6124,32.9765,-8.6359
SrY2Pb,25.4521,25.2796,-0.1725
TaSiMo2,54.4704,48.3931,-6.0773
Hf2TiV,105.5491,79.9482,-25.6009
LiTaAu,22.406,27.5423,5.1363
Na2Sn4GeAu3,28.1458,27.9113,-0.2345
HfTi2V,62.8978,51.0275,-11.8703
POs2C,29.3266,28.7406,-0.586
SrYPb,29.9378,29.3754,-0.5624
RbZr2Tl,63.1977,52.8627,-10.335
Ta2RhSe,42.6393,38.9131,-3.7262
AgIr4Pt,49.7562,46.3057,-3.4505
NaNd2As3Pt4,45.4364,33.8501,-11.5863
ErLu(B2Ru)2,4.1383,8.0207,3.8823
SrFeSe2,33.0138,26.9029,-6.1109
Ba2Zn2PtO6,18.991,13.8584,-5.1326
RbCr(CuP)2,25.2136,20.5297,-4.6839
Mn2ZnMoC,56.5243,45.9323,-10.592
Ac6Ir3Se2,54.7597,55.7253,0.9656
Ca2YB,49.1168,43.2665,-5.8503
CdReW2,63.7733,59.2556,-4.5177
PmSmGeAu,25.859,29.0814,3.2224
SmEr(GaRh)2,27.4116,24.1938,-3.2178
GdBeCu3,13.2858,13.0183,-0.2675
Rb2FeIrCl6,7.7993,8.0244,0.2251
Sm3Fe3Ge2Au,15.3278,17.2956,1.9679
Ta3MnP,44.8975,41.7944,-3.1031
CaYB3,42.779,36.1295,-6.6495
TaP2W,71.6109,60.6685,-10.9425
ZrRuC2,61.6349,48.7557,-12.8792
TaCdPb2,40.7899,42.7465,1.9566
TaCd2Ge,21.8917,23.846,1.9543
GeTe3Os,36.2832,34.8555,-1.4277
SmTmGeAu,27.3272,30.5424,3.2153
La2CoBr,35.7072,24.4091,-11.298
La2Sm3Au2,38.5272,34.5844,-3.9428
TaCr2CdO6,17.5238,14.7655,-2.7583
SmBe2AlAu5,34.7847,33.7961,-0.9886
LiTaSi,24.3078,24.7241,0.4163
Pr5YBi4,21.7866,22.7115,0.9249
KSm2Er,23.0578,25.2541,2.1963
LiCaTaSi,19.6631,15.3163,-4.3468
CrGe2Te,18.2107,17.689,-0.5217
TlCdW2,37.6809,40.7829,3.102
ZrZnSb2,48.6045,38.9844,-9.6201
TlSbOs,47.0205,45.7935,-1.227
InNiTe2,27.9639,27.5771,-0.3868
Np2Os,48.5066,57.1907,8.684
Cd2MoRu,19.1914,20.3408,1.1494
NaHoGeAu,26.8822,27.9746,1.0924
Na2In,22.979,20.2976,-2.6814
Zr2TlTc2,78.6889,67.1729,-11.516
NaGaAsSe3,36.9546,31.8295,-5.1252
LiAs2W,16.6724,16.8869,0.2145
NaGaAsSe2,40.3407,34.9002,-5.4405
Te4AsAu,37.6395,36.4747,-1.1648
GaSb2Te,35.3267,30.1066,-5.2201
Mn2InCu,56.6252,47.9777,-8.6474
SmGa2CuAu4,30.1466,31.0592,0.9126
LiAs2W,16.6149,16.8869,0.2721
CdWAu2,38.4603,40.6019,2.1415
MnIn2Cu,36.6234,32.9602,-3.6632
ErMoN3,8.6181,11.553,2.9349
TlSiMo2,24.2671,24.7857,0.5185
ZrPbW,63.7493,59.8113,-3.938
TlSiMo2,24.6428,24.7857,0.1429
Zr2AsW,61.9524,53.4804,-8.4719
TaAlTeSe2,35.6283,31.6704,-3.9578
LiZrAs2,29.1365,25.3064,-3.83
TlNiP,26.8552,26.9523,0.0971
ErMoN2,10.7237,14.8549,4.1312
Sm2GeAu3,32.9714,35.2728,2.3015
ZrAsW2,47.2747,44.5769,-2.6978
Ac3Zn2InPt9,68.4929,50.7373,-17.7556
ZrAsW2,47.2393,44.5769,-2.6624
RbTlC,34.2182,30.045,-4.1732
CsInGa2,15.4395,16.7591,1.3196
Ac2InSn3Pt4,56.0308,45.0331,-10.9977
Sm3P2Pt9Au,61.6079,44.0003,-17.6076
Sr5Br,14.1401,14.9341,0.7939
AcInPt,41.4298,41.6203,0.1905
Cs3GaP2,0.0,0.1662,0.1662
CsInGa2,15.2492,16.7591,1.5099
CaTiNi(PO4)3,11.9213,11.3753,-0.5461
SbO2,13.379,16.0206,2.6416
MnSi2Se,44.6362,34.5739,-10.0622
NaCdAsRh,21.4482,19.0045,-2.4437
ScAlSb2,26.1114,21.7148,-4.3966
TaAgAu2,40.7073,41.1398,0.4324
TaMnSi2,41.4608,35.6832,-5.7776
SrCa4Cr,14.9917,11.7578,-3.2339
MnBi3Rh,63.0756,56.3448,-6.7309
ThTiP2,19.2795,22.7844,3.5049
MnBiRh2,63.0327,52.0822,-10.9505
ZrSc3I,27.769,24.3306,-3.4384
Y(PbO)2,39.1399,37.6992,-1.4407
MgSn2F6,9.1053,8.7769,-0.3284
SnO2,51.3456,45.2451,-6.1005
Sm6Ir2AuBr3,34.8819,30.6862,-4.1958
Li2ScTl2,18.807,20.5116,1.7046
Mn2TlV,94.9113,78.849,-16.0623
CsTaN,13.773,17.649,3.8761
Sm2GeAu,25.9141,29.1264,3.2123
LiAsAu2,26.0994,27.6662,1.5668
CdIr2W,36.143,40.2032,4.0602
Mn2TlPb,76.0394,66.7697,-9.2697
Rh2PbCl,38.9264,32.1188,-6.8076
SiMoAu,25.9731,27.0147,1.0416
CoReBr,28.7218,26.0695,-2.6523
Rb(TcB)2,32.6849,30.6959,-1.9891
Cu2MoOs,29.6227,27.8067,-1.816
HfZn2B,40.9248,31.21,-9.7148
LiAcGe2Pt,33.8112,29.4777,-4.3336
Mg2InRu,11.0492,12.1118,1.0626
AcInPtAu,54.5312,49.0703,-5.4609
AlCBr2,20.3248,16.1181,-4.2067
EuPb2,44.1654,45.9703,1.805
CuMoOs2,38.3637,35.5503,-2.8134
SiNiP,17.2229,14.8914,-2.3315
ScIn2Ag,17.4303,15.6563,-1.774
CuMoOs2,38.4344,35.5503,-2.8841
FeSbRu2,37.0848,28.8863,-8.1985
Tb2GaC,24.525,25.5246,0.9995
SrC3S,54.1465,38.2703,-15.8762
NaZnCdPd,17.1256,17.1549,0.0293
NiCSe2,36.6787,28.7166,-7.9621
Fe(CuNi)2,17.7052,14.8373,-2.8679
CoRe2Br,30.9971,31.0342,0.0371
Ba2Y2Ir,48.5556,41.134,-7.4217
Mn2ZnF6,21.3275,17.1988,-4.1287
AcZnCdPt,44.7621,39.1544,-5.6078
CaLaSc2Rh,28.4506,17.9286,-10.522
Tb7CeTm12,29.1958,30.2754,1.0796
CoRe2Br,31.4397,31.0342,-0.4055
Sc2GaFe2Rh5,35.4159,27.2525,-8.1634
TiOsI,1.8536,7.0609,5.2073
U2PIr,52.6436,53.0127,0.3691
CoTcRh2,49.5575,41.2404,-8.3171
TlCrBr3,29.1317,27.9713,-1.1605
Sm3Al3Ge2Au,24.8284,23.6153,-1.2131
Y3Bi,23.708,25.6287,1.9207
Tl2CrBr,44.3936,43.1887,-1.2049
LiAsBr2,17.5138,15.9978,-1.516
CdPb2W,41.3172,43.5055,2.1883
Sr(MgPd)3,7.0373,9.0051,1.9678
ZrTa3S,55.1891,48.787,-6.4021
Tb6Ga2C,21.2801,21.5874,0.3073
TiTe2P,18.8592,19.6816,0.8224
VTeP2Cl,38.7195,31.6971,-7.0225
NaZrAs3,30.4795,25.6017,-4.8778
ZrAg2Mo,44.3294,37.552,-6.7774
CdPtW,49.1706,42.0304,-7.1402
CoRe2Br,31.2481,31.0342,-0.2139
LiP2Ir,18.7954,16.5521,-2.2432
SmSiAu,12.8116,17.27,4.4584
CaAcTh,45.342,48.5538,3.2119
Ba2LiSbS,16.4996,12.9268,-3.5727
SmPu2(SnAu)2,43.1324,45.464,2.3316
TiOsPt3,64.2767,47.0803,-17.1964
Y2BiPb,33.2054,35.2579,2.0525
Ba2SiMo,9.7116,7.7284,-1.9831
ErPaGaRh,38.1124,38.0168,-0.0955
AlCoCl2,16.55,12.1846,-4.3654
AlOsRu2,19.184,23.032,3.848
AcErGaRh,37.3563,36.5187,-0.8376
Y2Ga2PdAu,18.4775,18.4727,-0.0048
Ga2PRuS,26.8912,21.0777,-5.8135
Y8GaPt24,67.776,45.5481,-22.2279
GaIrPb,29.5233,32.621,3.0976
Lu2InTc,44.841,44.0626,-0.7784
In2MoF6,5.9833,7.0362,1.0529
Sm4AlGa12,11.4933,12.5024,1.0091
Pm4AlGa12,11.4353,12.5443,1.109
Na(CoI)2,13.6073,13.7706,0.1633
Ce4AlRh12,40.0184,29.9561,-10.0624
Hf2ScRu,76.9056,59.0785,-17.8271
CaAcTbTm,31.828,34.5726,2.7446
Y3GaB,47.4699,40.5051,-6.9648
AcAlZnPt2,49.8869,39.3752,-10.5117
Pm5TlCd4,24.8232,27.0151,2.192
Sm2Be4Ge3Au,12.0648,13.7528,1.688
Ca2Mn2V3AgO12,35.5481,28.6877,-6.8604
HfTe3I,59.803,49.3303,-10.4727
Ti3PBr,6.6805,8.0903,1.4098
CaTb2Tm,22.29,25.2454,2.9554
Tm4Al12Re,11.2793,12.7378,1.4585
Tm4Al12Zn,9.4176,10.6558,1.2381
YTm(FeSi)4,23.7476,20.385,-3.3626
Al(Zn3Ag)4,13.3011,12.1313,-1.1697
Rb2RePt,30.3404,24.9767,-5.3637
Cs2Tl2Pd,31.2936,34.6717,3.3781
PrTiIn,1.2828,5.5733,4.2905
TePtW2,52.7574,48.0128,-4.7446
Mn2AlMo,59.3472,49.9347,-9.4125
NaPr2Ru,35.4901,31.948,-3.542
Ta10Si2MoSe8,35.1358,32.3094,-2.8264
CrGa2Cu,5.576,6.5373,0.9613
CeAl4Tc,17.9985,16.7597,-1.2389
EuRe6,39.2775,41.7581,2.4805
Cd2SiMo,17.4533,17.2995,-0.1538
CoRuBr,20.1159,18.6525,-1.4634
UCd2P,27.4848,30.1246,2.6398
Y3(Si3Pt2)2,43.6078,30.4412,-13.1666
Rb2TlIn,18.8417,18.7572,-0.0845
SrCo2W,19.3131,16.6168,-2.6963
AcPdPtO6,18.3918,17.3517,-1.0401
CeErGaRh,27.3475,26.6828,-0.6648
Sr2TaRu,23.3745,24.5879,1.2134
KSn2S,27.8473,24.5545,-3.2928
CsHf3I,98.0336,71.5893,-26.4444
Be2HgMo,4.7167,4.4172,-0.2995
Ta2PbF,41.4778,39.6317,-1.846
AcCrGe2Pt5,59.4686,43.3954,-16.0732
Sr2TaRu,28.1557,24.5879,-3.5678
BaY3Ir,31.7779,28.8599,-2.918
YAlIn2Ir,32.9395,30.1339,-2.8056
Zn4ReRu,22.1291,20.0231,-2.1059
LuInRu2,14.6446,19.5804,4.9358
Re2Ir2Pd,27.5906,34.805,7.2144
ReAg2Ir,32.3784,34.2216,1.8432
BaYIr2,49.9291,48.0511,-1.8779
Sr7YZr2,31.6677,27.7897,-3.878
BeHgMo2,13.0688,10.8833,-2.1855
ZrTaAs2,38.5533,35.774,-2.7793
FeCu2GeSe4,36.1012,29.344,-6.7571
SiHgMo,10.4558,10.4364,-0.0194
Re3WI,39.5004,40.9568,1.4564
LiY2(TmSe2)3,32.3987,28.4121,-3.9865
SmHfRhAu,65.7195,54.1499,-11.5695
LaAlTl2,38.9539,35.6736,-3.2802
CoOs2W,96.0602,79.7948,-16.2654
Re2SbW,41.3423,43.3686,2.0263
Y4FeB14,34.5595,28.7,-5.8595
ZrTaAs2,31.4154,35.774,4.3586
Mg(BC)2,35.3397,27.2158,-8.1238
LaYMgIn,23.1129,19.2792,-3.8337
AcLaSmAu,47.0848,45.0206,-2.0642
NaGaPb2,34.5081,34.6932,0.1851
GdY2Tl,26.886,29.6124,2.7264
CoNi2W,34.7109,28.8703,-5.8406
Na3CrMo,22.0712,18.7495,-3.3217
SiHg2Mo,7.9788,7.6846,-0.2942
NbGeN,26.1918,26.807,0.6153
ErGa6Rh,15.6977,14.9392,-0.7585
NaYMgIn,16.5684,15.7015,-0.8669
HoErGaRh,28.0819,27.5547,-0.5272
LiAsIr,18.1709,21.1963,3.0254
Er2GaRh,28.3396,27.8196,-0.52
La2Dy(YTe2)3,34.0224,30.1532,-3.8692
Ac3Al2(SiPt2)2,59.7479,47.8888,-11.8591
Tb2Pr8Er,4.1863,5.9061,1.7198
TlCoRu,19.4556,22.4068,2.9511
SrNb2Cl,77.9903,67.1361,-10.8542
Na(NbNi)2,57.7686,49.4504,-8.3183
CrCoRh,21.9402,18.0265,-3.9137
Co2CuOs,31.076,29.1721,-1.9039
Lu6ZnSb2,32.6545,31.9188,-0.7357
Hf2CrTe,85.2151,64.0447,-21.1704
CrCoRh2,28.7356,22.602,-6.1336
Nd2AlSi3Ni4,15.4448,14.4822,-0.9627
TiNbTe3,54.2881,49.2265,-5.0615
Ca4MnW,27.6522,25.6374,-2.0149
TbPr2Sn3Pt4,42.8221,31.92,-10.9021
InSiMo,16.9172,16.8254,-0.0919
Tb11Pr4Y9,17.1483,18.4623,1.3139
NaPrAs,4.9756,7.2182,2.2425
Pr6DyYEr2,4.2883,5.5492,1.2608
Y2MnCrAu,53.2669,44.926,-8.341
In2SiMo,17.7281,17.7301,0.002
Dy3YEr3,26.5686,28.4854,1.9168
YSiGeIr2,38.7953,36.1499,-2.6455
BeVCu3,34.8323,27.1584,-7.6739
In2GaBr,14.7839,15.6747,0.8908
InCoMo3,15.3393,17.7631,2.4237
Be3ReSn,16.6586,15.2082,-1.4503
In2GaBr,12.1274,15.6747,3.5473
CoTcW2,46.0541,45.581,-0.4731
In2Ga2Br,10.7972,12.3322,1.5351
BaSi2Pb,20.9642,18.7659,-2.1983
CoRe2Hg,22.0721,24.987,2.9149
TlFeRu2,39.017,33.3569,-5.6601
TlSbOs2,45.661,46.5957,0.9347
ReRhS2,50.9582,40.9126,-10.0456
In2SiMo,17.7882,17.7301,-0.0581
Co2CuTc,43.9437,37.4137,-6.5301
Ca2ReAg,20.9785,20.7255,-0.253
LiP2Br,14.9076,13.5237,-1.3839
TcBSb3,46.7544,37.6481,-9.1063
NaAsIrW2,34.5277,34.5419,0.0142
HfTaS2,72.7845,56.5065,-16.2779
HfTaS3,70.0841,52.2001,-17.884
Zr3TlSi,73.3872,59.2763,-14.1108
Sm4Ga3Au,20.95,22.9086,1.9586
YScAsBr2,19.907,16.3294,-3.5776
Li2Y2TiS6,38.6932,28.2301,-10.4632
CeSi2Pt5,61.8847,42.5055,-19.3793
Cr3CoTc,27.29,23.1926,-4.0973
Cd2TeOs,30.9051,31.443,0.5379
MnZn3Ir,36.9208,30.6322,-6.2886
Ac2InPtAu6,51.9585,50.7489,-1.2096
Re3GeS,50.3218,43.4892,-6.8326
Na3GdBr6,15.5784,15.8017,0.2233
CoReOs,29.8387,35.3535,5.5148
Sm3Al3Si2Au,26.2212,25.0299,-1.1914
Li2YTi,18.7882,14.893,-3.8952
CaLaLuTh,39.2691,37.3231,-1.946
In2SiMo,17.7466,17.7301,-0.0165
CaIrI,28.9611,25.0432,-3.9179
NiAg2F6,12.9485,11.3077,-1.6408
Sm(Ga2Au)2,17.76,19.679,1.919
BaTaW2,29.7742,34.4183,4.6441
NaBeZnAu3,30.0147,28.9025,-1.1122
BaTaW2,29.3854,34.4183,5.0329
HfRe2S,70.6215,58.9274,-11.694
ReSe2S,49.121,41.0813,-8.0398
SiIr3Br,32.5369,32.2226,-0.3144
BaTa2W,28.7267,32.1845,3.4578
KAg3Pt,40.6364,30.0769,-10.5595
Os3RuPt,48.5962,44.1186,-4.4776
NaCaNd,18.249,18.3614,0.1124
BaRuW,31.9057,27.8961,-4.0096
Ba2TaW,20.3186,22.9541,2.6355
K2AcCuBr6,12.673,14.1562,1.4833
BaRuW2,34.4522,32.5953,-1.8569
ReOs3S,47.0262,45.0598,-1.9664
SiMoIr2,31.8928,30.8117,-1.0811
Ba2RuW,24.9013,21.4667,-3.4345
HgPd2F6,5.6035,4.5314,-1.0721
Sm6HgAu2,26.8697,28.5252,1.6555
CaLaTm4,30.1082,28.5761,-1.5321
Ca6Au2SeN,22.3611,20.775,-1.5861
YSc2Br,9.5265,10.5872,1.0607
Sm2Si2Au3,31.0091,30.3661,-0.643
Ba6Cd2HgN,1.5509,2.7328,1.1819
ScTaMo2,72.1004,64.7713,-7.3292
ReTeW,40.8078,43.8643,3.0565
PmSmMnAu,48.926,46.7209,-2.205
ScTaMo,91.4013,79.2831,-12.1182
Li4Y3TiS8,34.0624,25.4394,-8.6229
Mn3CdRu,67.7141,56.2311,-11.483
NaLa2TlFe,42.1881,32.7509,-9.4373
LiAsOs,17.4332,20.8273,3.3941
YSc2Br,9.4841,10.5872,1.1031
RbReSb2,28.0926,24.9011,-3.1915
ReTeW2I,38.2866,39.2404,0.9537
Na2BiAs3Pd4,20.1529,20.2237,0.0708
ReTeWI,36.2357,37.7912,1.5556
ReTeW2,40.4131,43.8087,3.3956
Li2CoRe,12.5972,14.6945,2.0972
Er2Ga4Pd3Rh,22.8966,21.1879,-1.7087
TaVSe6,62.3424,49.3581,-12.9842
CrGaI2N,21.022,18.7102,-2.3119
Cs3InNi,20.5117,21.019,0.5074
RbTlZn3,15.9439,15.7214,-0.2225
Y2SnSe2,30.57,24.15,-6.42
Er3GaRh,23.162,23.0518,-0.1102
CoRe2Ir,32.447,39.4023,6.9554
Hf2Zr6Fe,97.4645,75.0497,-22.4148
SrLiNb,52.8076,43.0253,-9.7823
ReSi2Hg,18.3355,15.7821,-2.5533
PI,11.404,8.15,-3.254
YScBr2,11.8262,11.6098,-0.2164
TaSiAs2,28.3884,27.0259,-1.3625
TlInRu2,26.0949,29.0544,2.9595
Ta2SiAs,34.6613,35.609,0.9476
Zn6XeO6,29.4052,20.2645,-9.1407
NaUGa4,21.1542,21.7528,0.5986
Ca2POs,21.8975,24.2598,2.3623
Co2MoPb,16.8041,18.5302,1.7261
Tm2Zr2Sc,46.2871,39.4029,-6.8842
TaInTe2,35.0303,36.8104,1.7801
MnNbSi,76.422,61.0602,-15.3618
GdP,0.0,26.4713,26.4713
Sm3TmBi4,39.6363,41.9221,2.2859
Zr6Cd2Fe,69.7046,56.2829,-13.4217
SrLiNb,48.2687,43.0253,-5.2434
LiY2TiO,34.9121,27.8047,-7.1075
LiEr2Ga2Rh5,25.4171,20.6501,-4.767
Pr2U(FeN3)2,12.9939,12.3604,-0.6334
YSc2Br,9.6253,10.5872,0.9619
Ac2BeSnPt6,69.3341,51.188,-18.1462
Na2PtPbC,51.8588,39.5117,-12.3471
Rb2RePd,13.0054,15.2545,2.2491
LiSc2V,35.4086,29.357,-6.0516
CaAlMo2,19.8886,16.8646,-3.024
Re3BiS,49.7896,46.9643,-2.8254
ScNb2Au,77.0861,68.862,-8.2241
Pu6Si2H,39.9313,41.6108,1.6795
YScBr,11.3774,12.2829,0.9056
CaAl2Mo,11.8633,11.0758,-0.7875
YScBr,11.9327,12.2829,0.3502
Rb2SnPdBr6,11.3413,10.6079,-0.7334
NaAcI4,28.7662,29.9095,1.1433
Sm2MgC,23.0088,23.923,0.9141
LiAsPb2,28.8795,30.3076,1.4281
Y3Si4,33.0021,27.492,-5.5101
Mn2Cd2Br,50.1717,42.4772,-7.6945
CrTe2P,48.0521,41.256,-6.7962
NaTh2PaSb4,49.7981,45.6053,-4.1928
AcCe2Th,45.1998,48.882,3.6823
TlAsIr2,37.5958,39.8357,2.2399
Ca2TaSe,44.5601,38.9119,-5.6482
Al2CoCl,16.9342,11.8166,-5.1176
SiMoOs2,31.7826,33.1196,1.337
NaTe,23.9301,21.9611,-1.9691
Al3GaC,17.3187,13.9953,-3.3235
NaLiInTe3,25.623,23.143,-2.4799
Tl(In3Ga)2,20.779,22.1231,1.3442