Formula,E_hull_DFT (eV/atom),E_hull_ML (eV/atom),Delta (ML - DFT)
SrBeW2,35.4529,29.0198,-6.4332
Sr6Re2N6O,43.7677,39.3611,-4.4066
ScPSe,28.0056,21.5877,-6.4178
TmPS,11.472,18.2018,6.7299
CdInIr2,31.5976,34.5677,2.9702
Gd2ScAg,23.6511,23.7969,0.1459
Sm5ThSb4,36.3343,34.0149,-2.3195
Nb(B2W)2,32.6365,31.4984,-1.138
Tl2InAg2,37.0458,34.4061,-2.6397
NiPtI4,31.295,27.8109,-3.484
KScC,27.184,21.9956,-5.1884
MnTl2CoPb,54.1862,48.3808,-5.8054
Np(CuAs)2,13.9659,17.3012,3.3353
Fe3NiSe,29.4366,22.6264,-6.8102
TlInAg2,33.4228,30.0635,-3.3593
TmHfSe2,66.7036,52.7551,-13.9485
Tl(CuAs)2,12.9698,14.8917,1.9218
NiP2,10.7102,10.9598,0.2496
PmAlNi5Ge2,14.7861,13.5679,-1.2182
Tl2IrOs,43.0303,47.2442,4.2139
NaSrSn,19.2374,18.8213,-0.4161
Pm4PrZn4,10.3945,13.1641,2.7696
Hf5BiSb,108.6127,79.4005,-29.2122
Sr2TlS2,32.617,28.2654,-4.3516
YSiNiN,39.5068,33.7854,-5.7214
SrCu2S,16.7792,14.6119,-2.1673
SrBeW2,35.1958,29.0198,-6.176
AlBiTe2I,35.168,32.5915,-2.5765
Y2TlPb3,38.9967,40.5485,1.5519
ScTiCdS2,36.2837,30.7617,-5.522
Nd2Cu2Br,16.772,17.9208,1.1487
PmPdPb2,36.6245,39.0027,2.3782
Th2Pd2O7,16.3594,15.8356,-0.5238
BeMoAs2Br,13.7647,11.7373,-2.0274
VGa3Si,34.4817,27.6734,-6.8083
ZrCdPb3,55.4009,52.5023,-2.8986
K2SrI,14.527,14.7629,0.2359
Cd2Cu2Sn,29.9218,27.4998,-2.422
Fe2PIr,27.8063,28.5657,0.7594
ScTi2GaS,24.1542,23.0357,-1.1185
CrCuIr2,27.7357,28.6283,0.8926
ThZrSc4,23.9624,24.4851,0.5227
Ba2CdCu2,7.3316,7.5182,0.1867
HgAuO2,12.7159,13.9695,1.2536
MoPbF2,17.7787,18.7817,1.0029
DyMnIr,40.9841,38.5835,-2.4007
Ca2BeMoBr,14.2577,11.1837,-3.074
GdThZr,64.6656,61.8718,-2.7938
Rb2TaTiO6,0.0,0.0,0.0
ThZrSc2,43.6631,42.449,-1.2141
LiEr2Au,26.1962,28.2381,2.0419
La4NiIr,42.3337,32.4074,-9.9262
Y2ErTe3,23.4886,26.0717,2.5831
CsRb2Br4,9.3852,9.5654,0.1802
Y2ZrIn3,32.4342,29.8083,-2.6258
Dy(ErCu)2,15.1715,18.8323,3.6608
Er3Sc3CuTc2,73.1591,61.3648,-11.7943
Sc3TiS,22.6793,21.4577,-1.2216
Ti2InRu,11.1404,15.0004,3.86
MnInGeIr2,45.1573,41.2149,-3.9425
MnAlTe2,47.1678,40.4843,-6.6835
TaAl3Hg,10.0541,11.2537,1.1996
Dy2Co2Si2C,23.0583,19.844,-3.2143
Rb2AgMoIr,22.7842,18.9783,-3.8059
MnCo5Sb,26.2337,22.3099,-3.9238
Al2AgSn2,12.3557,12.436,0.0803
TaPdN3,20.4578,19.1812,-1.2766
CdIn2SnBr6,14.2091,14.9841,0.775
Nd23Hg4Rh7,21.0088,19.285,-1.7238
MnCoSb,44.9513,35.4005,-9.5508
Pm2Sm2Ag3,27.5405,25.4194,-2.1211
Ca2SbSe,43.0928,33.3883,-9.7045
MnCoSb,51.8141,35.4005,-16.4136
Y3TlAg2,20.559,20.5914,0.0324
Ba2MnAlS5,40.1701,27.6176,-12.5525
MnAlPb2S5,48.7428,38.6271,-10.1156
LiCoSb2,25.273,20.1198,-5.1532
KReW,33.8319,34.7369,0.9049
Tl5(V2Ni)2,71.4728,61.5141,-9.9587
Mn2CoSb,64.0463,49.2239,-14.8224
NbSiSN2,43.299,34.3695,-8.9295
Sr2Tl3In,30.3818,32.0226,1.6408
H9I3O2,15.0343,12.6864,-2.3479
ThNp4N5,33.8748,37.209,3.3341
ThNp4N5,33.8688,37.209,3.3401
CePr3(AsO4)4,4.7781,3.7306,-1.0474
Ba2SrTcS,32.4537,26.2667,-6.187
SmSb2Au,35.0753,32.6791,-2.3961
TiCr2Sb,28.6209,25.5327,-3.0882
TiCrSb2,31.6708,27.6134,-4.0574
ErZn2Sn,16.1154,18.2742,2.1588
Ti3CrSb,23.4693,21.502,-1.9673
Sc5Sn2PdRh2,18.9085,14.5351,-4.3734
In(SbAu)2,37.4252,34.6209,-2.8043
NiPt4Au,68.576,52.0491,-16.5269
Tl3Cd2I7,28.8099,29.1552,0.3452
Li4CrSb,9.6032,8.188,-1.4152
Zn2IrPt,40.8516,32.4294,-8.4222
LiCrSb4,31.9583,24.592,-7.3663
CuAgGeAu,23.7494,23.4584,-0.291
SrTm3Ru,24.1414,25.9591,1.8177
Tl4GeTe5,42.1785,41.1039,-1.0746
Cr3PtBr,37.4004,28.4473,-8.9531
Zn2IrPt,40.8258,32.4294,-8.3964
ZnIr2Pt,50.2431,42.1865,-8.0566
PuPaPd4,34.6049,37.1466,2.5417
NiRh4W,41.2906,32.5984,-8.6922
Th4NiPt,52.0586,51.6367,-0.4219
LiScFe2,33.8913,30.1042,-3.7872
La(NdCu)2,18.2007,17.9015,-0.2992
TmNi3Rh2,26.1634,21.3232,-4.8402
Sm3(HoAg)2,27.6972,28.0772,0.38
TbY14Er,15.6374,16.9786,1.3412
Pr4NiRh,5.0326,2.7779,-2.2547
AlTc2Os,58.7561,52.0051,-6.751
Cr2PtBr,44.1066,33.5795,-10.527
Ca(PPb)2,29.8917,28.317,-1.5747
PmYTeAs,21.2223,23.9785,2.7561
Ac2NdCu2,29.4153,31.9345,2.5192
U2(NiRu)3,25.1939,28.1969,3.003
Pr2AlAgSe5,23.4479,19.0683,-4.3796
CoSnSb2,25.5672,21.5687,-3.9985
Pa2(NiRu)3,24.7596,27.8125,3.0529
HoTm4Rh5,38.678,33.4141,-5.2639
Cs2TcAgBr6,23.3163,20.8966,-2.4197
Pr2ErSb3Pt4,50.2906,37.1289,-13.1617
SrCa2SeS,43.893,33.1161,-10.7768
Ca3MgHg12,0.6273,1.2541,0.6268
SrTbNiS3,31.5791,25.1975,-6.3817
Er2NpSb3,23.5488,25.139,1.5902
AlTeAu2,35.1397,35.7339,0.5942
ErPa2Sb3,42.5247,41.5587,-0.9659
AlTe2Au,29.7434,31.1653,1.4219
ZrTa(VN3)2,34.7902,27.3345,-7.4557
AlTe2Au,33.6492,31.1653,-2.4839
HfRuF2,44.0052,34.3111,-9.6941
Zn(CdIn)2,15.6606,17.0489,1.3882
Pm2TmCu2,14.047,16.9622,2.9152
AlTeAu,26.9583,28.9624,2.0041
ZnCdIn2,16.7047,17.7807,1.076
DyY3Au2,20.8828,23.9078,3.0251
TbNd2ScP4,21.376,20.4726,-0.9035
Er4NiSb,25.5133,25.7669,0.2536
NiSbTe4,39.7164,35.434,-4.2824
Cs3AgGe,16.7141,17.5597,0.8456
AcAlSi2Ni5,18.4181,17.6458,-0.7724
Zn2InPb2,25.6952,27.1357,1.4405
Zn2Cd2In,14.8121,15.7499,0.9378
TcIrI,46.7525,46.2327,-0.5198
Sm2ThAs3,22.8685,25.6774,2.8089
Tm4NiSb,26.4325,26.6852,0.2527
Sc2TiSb2,16.7651,14.1098,-2.6553
Sm8Sn2Au,25.8443,27.4921,1.6478
K3Sr5Cl12,2.4135,2.8564,0.4429
Ca(CoTe)2,21.321,19.2245,-2.0965
TlZnCd,26.0839,27.0529,0.969
Nb3GaAg,94.0217,77.4152,-16.6066
Mn2Ni2Ru,78.9054,67.8163,-11.0892
YZn2Ag,13.5421,12.0449,-1.4972
Zn2InPb2,28.152,27.1357,-1.0163
SrTbAgS3,33.5165,26.4044,-7.112
SrBeS2Cl,31.8686,24.6945,-7.1741
ZnIn3Pb,24.1878,25.0595,0.8718
MnGeOs2Pb,50.1552,47.2076,-2.9476
CsRb2NpO4,4.1612,7.5145,3.3533
SmYGaIr,27.2441,26.4274,-0.8167
Cu2GePt2,40.1097,31.1702,-8.9395
PaAlSi2Rh5,42.2967,32.4883,-9.8084
ZnInPb2,33.273,35.329,2.056
TaAs2Ru,16.244,16.5647,0.3207
YTmSnPt,48.6074,38.7066,-9.9008
GdGaAu2,25.8217,28.885,3.0632
ZrTi5Al2,18.6403,16.4456,-2.1947
Pr3DyErTm,8.9866,10.5859,1.5993
Nd(CuSb)2,20.3377,18.9735,-1.3642
Sr2Cu(SI)2,26.2735,22.6536,-3.6198
SrSmAg4,27.1555,22.8257,-4.3298
Pm(CuSb)2,20.3748,18.9868,-1.3879
VSiP,46.5218,27.0551,-19.4668
Sm2Lu,27.8902,31.036,3.1458
InRuSe3,37.2393,31.8957,-5.3436
PtRh5,48.6638,34.9285,-13.7353
Zr2(NiIr)3,42.652,40.6136,-2.0383
LuRhAu2,43.5733,41.7783,-1.7951
AlZnAs2,20.4081,16.8464,-3.5617
Cd(GaSe)2,26.371,22.8758,-3.4953
TaGaRu2,32.7951,31.8537,-0.9414
Sr3AgI,18.5839,17.6327,-0.9512
Ce3Nd(YSe3)2,32.8828,29.3984,-3.4845
La4NiTe,36.5849,26.9096,-9.6753
Tm4NiTe,12.716,17.779,5.063
Pu(CuSn)2,55.0974,49.9086,-5.1888
CeNdNi,22.2308,22.7103,0.4795
NaSrScGe2,23.358,17.9949,-5.3631
CaLaFe3,24.9162,18.5008,-6.4155
CsRbAuO2,18.6707,18.4669,-0.2038
Nb3BO,85.1168,70.5876,-14.5292
LaMnFe2,44.2608,34.0612,-10.1997
YTm(SbO4)2,35.1825,29.9395,-5.243
La2PbI,43.954,36.6408,-7.3132
GdGaNiAu,23.7454,24.9342,1.1888
Cs2Yb6NF,26.4418,27.5136,1.0718
SbC3,53.4097,38.9026,-14.5071
Tl2RePt,53.9553,49.8849,-4.0704
EuGdGaAu,27.6914,29.984,2.2926
Tb2TmCu2,14.7575,18.0903,3.3328
Y2Ge5Pd3,13.2001,12.4921,-0.708
Ni2BiRu,15.8583,19.8667,4.0084
Y2Ge5Rh3,16.6472,12.6305,-4.0167
Li(CoCu)2,25.8842,19.6196,-6.2646
Pr5TmSi4,6.141,4.7166,-1.4244
GaSn3Pb,24.9642,25.7051,0.7409
PrNpSe3,18.9807,18.8326,-0.148
Sr2AlOs,14.2609,18.154,3.8931
MnCoSb,45.0852,35.4005,-9.6847
Zr4TcNi,81.7895,69.1866,-12.6028
Cr2Ga3Ir,9.2126,11.0592,1.8467
K2TaCuOs,25.153,24.4331,-0.7199
La2EuY,36.4702,29.7368,-6.7334
ThCd4,23.2095,27.1444,3.935
Sr2InS,21.5585,19.9509,-1.6076
Pr2AgTe,15.2357,14.4484,-0.7872
SrOsS2,35.7746,31.3368,-4.4378
Th2ScSb3,45.5962,41.6005,-3.9956
K2MnIr,38.2497,33.8734,-4.3763
MnCS2,69.6263,50.9604,-18.6659
InAsRu2,18.4632,18.9487,0.4855
Tm2CdRh4Pb,40.5268,35.0132,-5.5136
Hf2Al2Co3,58.3104,39.9373,-18.3732
HfGa2Ru,44.8733,35.6269,-9.2465
Nb3Ni3Rh2,67.4075,55.6443,-11.7632
Fe7As,11.2163,10.2038,-1.0126
Zr3Ni3Rh2,50.9628,42.2759,-8.687
Nb2(NiRu)3,43.5609,39.5623,-3.9987
Nd(ZnCu)2,10.4652,12.1965,1.7314
Ce2(NiRh)3,30.5736,24.1786,-6.3951
HoPu(UAs2)2,33.7388,36.1565,2.4176
Pa(ZnCu)2,19.2347,21.1088,1.874
AlSeI,15.8456,12.2274,-3.6182
ZrAgSb2,49.3416,39.6672,-9.6744
Zr4NiOs,64.662,55.9082,-8.7538
CePrSc2,7.6769,9.8645,2.1876
Tm(ZnCu)2,8.375,11.544,3.169
HfMo2Ru,41.1558,35.3575,-5.7982
CsAg2SbBr6,22.5114,20.56,-1.9513
In2Rh2O7,11.2447,8.8499,-2.3949
AsC5,52.9887,37.1605,-15.8282
SrSmAg2,25.0564,22.5407,-2.5157
As5C,18.9913,16.8387,-2.1526
AcYZnGa,25.2357,25.7601,0.5244
BaNaSmPb,25.3577,25.9897,0.632
KTa2O6,0.2007,4.4294,4.2286
SrBrO3,7.5365,6.3762,-1.1603
CaTiCu4,7.5331,8.0416,0.5085
ThBe2SiPt4,59.5078,45.4041,-14.1037
Mg3Cr2,1.26,2.4999,1.2399
Ca(TiCu)2,2.4552,4.4162,1.961
Sr2MnBe,37.3521,27.4505,-9.9017
TaBi3I,45.0529,46.1485,1.0956
TeP2Br,12.6095,13.6745,1.065
CaLa3(YTe3)2,36.8696,30.7184,-6.1512
Be2ReI,26.6723,28.258,1.5857
Sm9Y2Er,23.5334,25.108,1.5746
Y2ErPaAs4,19.1586,21.8617,2.7031
K2NiBi2,24.5458,25.6935,1.1477
YThMg,28.9403,30.3663,1.426
PrFeCu,14.4172,12.5567,-1.8605
SrYEr2,23.8494,24.3069,0.4575
SrRuSCl2,25.7833,21.736,-4.0473
Th2CuAu2,40.598,44.7922,4.1943
Ba2CuAu2,16.7536,18.4838,1.7302
TcNiAs3,34.2712,27.934,-6.3372
Pa2Ga2Cu,26.6963,30.299,3.6027
PuZr3Ti,47.8134,41.2552,-6.5583
TbYbSb,30.438,30.6414,0.2034
CeTh3,55.8339,59.1536,3.3196
SrLaPm2,28.7754,26.7031,-2.0723
NiAsC2,38.4968,27.4552,-11.0416
CaMg2W,9.8164,12.563,2.7466
PmTh(SiPt)2,48.7823,39.2729,-9.5095
LaPm,33.4435,28.0469,-5.3966
Sc3TlS,13.6551,17.4493,3.7942
Yb(Sb2Rh3)2,45.6699,34.1165,-11.5534
SrTaIr,41.925,36.4246,-5.5004
SrLaPr,20.2327,16.3052,-3.9275
Cs2YNpO6,11.2085,12.9286,1.7201
Yb(Sb2Ir3)2,43.0354,41.1758,-1.8595
Yb4SbSe3,39.5328,36.3024,-3.2304
YbSbPd,18.6958,21.3245,2.6286
YbSbIr2,41.4951,41.9239,0.4289
CuAs2,4.9364,9.7392,4.8028
Yb(Mn3Sb2)2,73.6726,56.5127,-17.1599
Cs6AgAu2O,30.637,29.0202,-1.6168
YbAlSb,16.551,17.4434,0.8924
TePBr2,17.2023,16.7295,-0.4728
Cs2ZrTeO6,12.1467,10.9807,-1.166
Nd2CuIr2,28.0716,31.7313,3.6597
Sr2ScAlSe5,24.7932,20.5282,-4.265
SrMo2S,19.0659,18.1304,-0.9355
Ba2CdPtAu6,38.9598,37.5292,-1.4306
SmMn4,76.4547,59.2471,-17.2076
SrSe3I,36.4307,30.7599,-5.6708
SrCr2C,33.4357,27.3854,-6.0503
BPPdS2,29.2901,26.1554,-3.1347
Rb(AgSb)2,27.8277,21.7464,-6.0813
CdNiI4,18.2692,19.6214,1.3523
BaV3Ir,88.5743,70.9148,-17.6595
Sr(CaAc)5,33.7537,34.1586,0.4048
Sr2CrRu,15.7498,14.6808,-1.069
SrTaIr,42.6357,36.4246,-6.2111
SrCrRu2,16.4997,16.1985,-0.3013
SrCr2Ru,14.5928,13.3587,-1.2342
Pm(YEr4)3,26.1924,27.6444,1.452
CaZr2ZnN,51.656,42.5351,-9.1209
Ac3La,61.3393,58.4377,-2.9016
Ac2La3,52.873,44.4456,-8.4274
WC3,57.864,42.3567,-15.5073
K3Cr5Br12,10.402,8.8674,-1.5346
Ac3La,61.3297,58.4377,-2.892
LaY2Er9,28.6675,28.6067,-0.0609
KTl2Ru,29.3547,30.8461,1.4914
AsPt2F,44.5773,33.9821,-10.5952
ScMo,0.0,0.0,0.0
Sr3LaPb,29.0549,26.3619,-2.6931
Sr2LaPb,32.6211,29.7003,-2.9207
Li3Tl4,29.0953,30.2761,1.1808
EuIn2Sn,21.734,23.2113,1.4773
GeOsRu2,21.1819,25.3965,4.2146
Cu3PPb,20.2458,18.7789,-1.4669
BeNiI3,23.3586,23.8535,0.4949
Nd3BiRu,28.6346,30.4392,1.8046
Pm2VSb,55.5835,47.2674,-8.316
Nd(SbRu)3,23.7178,21.6598,-2.0581
NdBiRu,31.5827,35.5996,4.0169
Pm5NdRu2,38.993,33.511,-5.4819
CuTe2,26.9029,26.7541,-0.1488
Pu2Cd3Ag2,37.7188,36.5374,-1.1813
NbB3C,50.6963,41.0679,-9.6285
SrAc2Pr,34.5115,36.8557,2.3442
Ba2CdIn6Pt,22.5974,20.9677,-1.6298
SrY2S,25.8949,21.6246,-4.2702
Ce3(AgPb)2,34.3459,33.8867,-0.4593
RbLiMo2Ir,23.5019,19.5082,-3.9938
Pr2Nd3Ru2,29.4654,27.9215,-1.5439
Hf4CuNi,97.7446,70.9258,-26.8188
Ta2CdMo,27.3594,31.6431,4.2837
NiAs,11.1908,10.2577,-0.9331
NdY(HoHg)2,17.7107,17.927,0.2163
YEr2Tl9,43.9405,45.047,1.1066
NiAs,0.0,10.2577,10.2577
Ba3P,0.0,0.0,0.0
NiAs4Ru,14.1891,11.1768,-3.0122
Ir3Os,43.0887,49.0146,5.926
Be2IrW,26.2957,26.5997,0.304
GaSnSe3,30.3589,25.7881,-4.5708
GaRu3Pt,31.535,27.1396,-4.3954
La2ScMn2,54.9905,40.1863,-14.8042
NiPdBr4,11.5039,12.9102,1.4062
Ga2SnSe,21.521,20.4571,-1.0639
BeIrW2,33.1465,37.7058,4.5592
BeIrW2,32.9074,37.7058,4.7983
Nb(ZnB)2,36.4654,28.9302,-7.5352
Cr2OsRh2,31.5516,26.755,-4.7966
SrGa5Os,13.6876,15.1454,1.4577
ZrHgMoOs2,44.3498,39.1405,-5.2093
ThBiI,42.2117,44.8859,2.6742
CsNpCd2O6,12.0611,14.2312,2.1701
CsNdSb,26.7244,26.4055,-0.319
Zr2PbBr,72.4323,60.0624,-12.3699
Cr2ReW2,27.2654,31.275,4.0096
Er4CuNi,21.5293,24.4319,2.9026
ZrPb2Br,60.9235,53.1912,-7.7323
CaHfTc2,77.079,61.5046,-15.5744
GaTeSe2,32.8637,29.5525,-3.3112
Cr(OsRu)2,0.0,3.8984,3.8984
Ho3(TmAg)2,29.7413,29.7303,-0.0109
Tm4CuNi,22.3741,25.2955,2.9214
Cd(SbBr)2,35.9139,32.2981,-3.6158
Cs2HfBi2,56.2368,49.7864,-6.4504
Pr3Y2ErS6,30.7139,23.441,-7.2729
Ag2TePt,48.6929,37.535,-11.1579
Sc(TiNb)2,51.4165,45.7411,-5.6754
CuNi2Br,11.4536,11.8173,0.3638
PrY(ErS2)4,39.7979,31.8755,-7.9223
Zn2CdW,18.5348,20.792,2.2572
NaCeInAu,28.8585,29.108,0.2495
YP,34.8053,27.4237,-7.3815
MoOsAu2,42.0003,41.4587,-0.5416
CaIn4Se,35.9216,31.3907,-4.5308
ZrScBr,40.3431,34.1245,-6.2185
Cs2CuOsO6,9.2695,11.6407,2.3712
SrSc3Au,16.4904,17.6122,1.1218
Cs2RbHgAs,28.158,24.7324,-3.4256
Si2MoBr,14.3838,12.0348,-2.349
TiNbB2,30.3536,33.9313,3.5777
Fe2AgSn2,9.7111,10.6714,0.9602
Nd2Sm3Ag2,26.6278,26.6504,0.0226
SrBe2W,26.9907,19.261,-7.7297
GdGe4Bi,20.0278,21.4135,1.3857
AlTl3,39.042,40.4183,1.3762
Na2Sb2Pb,35.119,30.406,-4.7129
InSb2Se,39.5827,32.3933,-7.1894
Na2NbInSi,46.0524,37.2814,-8.771
Sc2SbAu2,25.2632,25.6504,0.3872
CaNbB2,31.8709,30.5103,-1.3606
Sc2TlS,32.7943,32.6945,-0.0998
InSbSe,26.492,22.3418,-4.1502
Al2TlSi,28.2903,25.3961,-2.8942
Ti2V2Cu,47.6293,39.6958,-7.9335
Cs2BaOsO6,8.3523,10.8891,2.5369
Ba2ScRe,29.0933,22.8588,-6.2345
CdSi2Au,24.241,21.4678,-2.7732
SrBeW,33.3259,23.1149,-10.211
Tb5Dy3,26.9013,29.0561,2.1548
TbY2ErIn2,16.6891,18.1235,1.4344
TmH12Rh7,18.6809,13.9626,-4.7182
LiReOs2,31.3559,35.7079,4.352
Na2Li2Ge,9.9627,8.8317,-1.131
PdPbBr2,30.6556,27.9865,-2.669
SrCeAg4,27.2022,22.8244,-4.3779
RbY2In,11.0447,11.0744,0.0297
CrReRh2Pb,42.4006,36.0304,-6.3702
NaLiEuIn,19.3708,18.1184,-1.2524
Pt(Pb2I)2,49.3602,46.2397,-3.1205
InAsPt3,60.8234,44.3105,-16.5129
Dy2HoCu2,14.5755,18.2125,3.637
Er(TmCu)2,16.099,19.7753,3.6763
Cd2IBr,16.6751,17.5757,0.9007
Li4Ac2CdSn3,20.744,22.0423,1.2983
Ac2PaSb,60.2204,59.5736,-0.6468
TlAgMoBr6,18.015,17.5502,-0.4648
MoPBr,21.6472,17.3596,-4.2876
Y4Er2Mg,17.904,18.6919,0.7878
Tl2(PdAu)3,36.9909,38.2714,1.2805
Ac(CeSb)3,32.8454,31.3757,-1.4697
CeAgSb2,30.9475,26.626,-4.3214
SrPmFe2,21.6592,19.9278,-1.7314
Be2MoBr,7.8565,6.6549,-1.2015
TlInCu2Pb,27.9557,28.8424,0.8867
Pr(CrSb)2,13.9204,11.328,-2.5924
YErTeO2,22.7208,24.7386,2.0179
TbDy2,27.1363,30.3313,3.195
ScCrSb2,34.0952,27.0537,-7.0415
Pr2CF,13.6252,11.2782,-2.347
Sc3TlPd6,15.821,16.1844,0.3635
Ce3YEr3Te8,32.8817,32.8516,-0.0301
NaNb2GeW,72.5472,62.192,-10.3552
CeScCd2,16.9094,19.1502,2.2408
CeScCd,16.2824,18.8648,2.5825
In2SiTc2,41.698,36.1972,-5.5008
Cr3MoBr,23.1699,20.4313,-2.7386
In2SiTc,37.3709,32.1272,-5.2437
CaSb3Pd,34.0148,26.5397,-7.4751
YEr3(TmIr3)2,34.4992,37.2984,2.7993
Ce2ScSb2,23.3593,21.712,-1.6473
LiCuW,16.673,19.1068,2.4338
Cu3W,14.9256,12.7561,-2.1695
CeSc4Ag5,19.9504,17.4539,-2.4965
CePdC,27.3572,26.2634,-1.0938
GeRu2F2,17.2685,18.4344,1.1659
InNiAs3,19.184,16.4318,-2.7522
DyHfRu4,38.9773,35.1821,-3.7951
Y3Er4Tm5,26.0481,27.4432,1.395
CaReO4,9.3402,13.3665,4.0263
YEr2Zn3,13.3105,14.996,1.6855
Ca2ScMnNb,54.7307,42.9873,-11.7434
MoAs2RhBr,20.0967,17.8175,-2.2793
Rh2Pb4Au,50.7707,47.5861,-3.1847
Re2BiTe,45.1899,47.2131,2.0232
TbPr4(YEr)2,11.8042,12.7739,0.9696
NpCdO4,13.3369,16.6844,3.3475
CsSr2Mo,17.6619,18.9177,1.2558
CeLuPd2,22.8118,25.6045,2.7926
Li2LaNb,49.1204,39.5166,-9.6038
YEr(TmIn)2,20.2517,22.095,1.8432
Ce2GdPd,23.9884,26.7226,2.7342
Ni8Sb,12.5595,12.8619,0.3024
Cd2GeRu,16.4384,18.3385,1.9002
PmCdO4,6.3695,7.8221,1.4526
Y2ErZrRh4,35.3261,28.5771,-6.7491
KSrBi2,30.5063,32.8716,2.3653
Tl2Ga2Sb,32.7908,31.721,-1.0698
HfV3Cd,111.559,85.1749,-26.3841
NaFeTcP2,37.3446,30.7286,-6.6161
Sr2BeBi2,27.5822,26.1866,-1.3956
Li2YCd3,9.3924,11.4656,2.0732
HfVCd2,73.7515,58.6099,-15.1416
SrAcPm2,32.0949,34.489,2.3942
Sc2Cr2O7,41.1509,34.0473,-7.1036
CeNi2Pd,18.8676,19.1157,0.2481
SiNi2As,19.5708,17.8426,-1.7282
AlSi2Ru,25.4563,19.2142,-6.2421
CeY2ErS6,40.2614,32.4184,-7.843
Ce2HfPb,61.5302,52.6374,-8.8928
AuI3Br,25.8709,26.2059,0.335
RuPtO2,27.483,19.9459,-7.5371
Li2CuSb,9.9726,9.9539,-0.0187
TcPt3I,78.0899,57.3509,-20.739
Dy2Tl2Au,40.3491,42.6265,2.2773
Y2ErPuO8,21.0513,21.1941,0.1428
CeY4Er7,23.9173,25.2994,1.3821
AcCoO4,4.5105,8.2191,3.7086
Pm4YEr7,26.6319,28.0434,1.4115
LiSm2SnO5,28.0368,23.3377,-4.6992
Tc3NiI,63.8634,53.643,-10.2204
BaLa2RhO5,28.6644,25.3128,-3.3516
Al2Ga2Ru3,10.9839,12.4789,1.495
CePdBr6,12.997,13.7605,0.7635
NaLuPb2,40.589,40.6318,0.0428
Ca2CrTc,38.1648,30.5869,-7.5779
CaCr2Tc,39.0937,32.0365,-7.0573
SrBiC3,52.2917,39.9385,-12.3532
NaNiRh3,37.5174,27.4518,-10.0656
SrIn(BiPb)2,37.5685,39.3533,1.7848
CaCr3Tc,34.8203,27.2112,-7.609
Sr4Hf2Bi,57.1898,45.4558,-11.734
Cu2PtPb,34.9098,31.7144,-3.1954
YEr(InRh2)2,35.0256,27.6737,-7.3519
Sr2InBiW,35.652,30.381,-5.271
K(SrBi)2,25.77,27.909,2.139
SrBi2C,47.0102,43.0172,-3.9931
Y15Er4Th,19.5924,21.0816,1.4892
SrTaBi3,49.2817,45.3345,-3.9472
ZnSb3Br,38.0235,31.3431,-6.6804
BeNb3Sb,94.2604,77.7631,-16.4973
SrSnBi3,36.0669,37.6697,1.6029
NaMoRh2F,31.0073,23.0637,-7.9436
Sn3PbAu,33.3441,33.7714,0.4273
Th3SbSe,36.8204,39.4722,2.6519
SrBi2W,44.3606,40.3859,-3.9747
TmTh(SiPt)2,49.7405,40.1804,-9.5601
AcDyAl2Pd5,19.9669,21.8359,1.869
CsNb2AgO6,25.0143,19.8766,-5.1377
Tl2ReSi,40.2142,39.726,-0.4882
Tl2ReSi,40.4058,39.726,-0.6798
ScTi3N4,21.9505,20.1827,-1.7678
SrTmSc,16.6026,18.9155,2.3129
NaSrReBi2,44.4275,38.8899,-5.5376
SrBiOs3,41.9318,43.3704,1.4386
ScMo2Au,29.9372,32.2322,2.295
NaCd2Ir,26.7311,26.8597,0.1287
K2SrBi,20.6876,21.8986,1.211
SrPmBi2,36.193,38.1368,1.9438
Hf3MoAu,99.5198,73.9084,-25.6114
BaSc2Re,34.9892,27.9186,-7.0706
TcIrPb2,60.9723,58.6678,-2.3045
KCd2Bi3,33.1799,34.4754,1.2955
MoPOs,31.2223,27.9884,-3.2339
La4Sb2Te,47.7387,35.0017,-12.7369
Mo3POs,31.1401,24.7006,-6.4395
InTeBr,24.4192,24.6229,0.2037
CaTa2TiTe,27.2869,28.0681,0.7812
SrNbV2,104.1112,83.8952,-20.216
SrGdInBi,28.8242,30.9862,2.162
SrTmBi,28.7464,31.6904,2.944
Zr2VPb,94.4954,79.7783,-14.7171
Sc2CrSb,25.5088,20.8234,-4.6854
RbSrBi,22.8724,23.8608,0.9884
Zr3VPb,96.7085,79.9854,-16.7231
BiPRhS2,45.0908,38.6688,-6.4221
Ru3PtO,35.2647,27.9622,-7.3025
CsKSrBi,25.8625,26.8659,1.0034
AlNiAu,18.5428,20.9535,2.4108
TmGa2Ru,10.8688,13.5073,2.6385
Sr(BeBi)2,25.6463,24.4887,-1.1575
Sr(GaFe)2,15.7214,12.5027,-3.2187
LiCrMo2,10.4593,13.0028,2.5435
Pr8Th,3.1157,5.0348,1.9191
CaCrMo2,21.0605,19.8508,-1.2097
Sr2CrBi,20.9205,21.7071,0.7866
AlFeRu2,26.4789,21.7628,-4.7161
LiCrMo2,10.534,13.0028,2.4688
AlFeRu2,26.3991,21.7628,-4.6363
Ti(CuSb)2,16.8606,14.8659,-1.9947
AlTe2As,36.8285,32.7805,-4.048
AlFeRu,30.2897,22.6636,-7.626
Sr3CrBi,22.5831,21.2242,-1.359
Nb2NiTe2,68.7821,59.2982,-9.4839
AlTe3As,38.4231,32.9234,-5.4996
Li(HfRu)2,55.3227,42.4878,-12.8349
YAlSe2,43.1768,33.8862,-9.2906
NaHfIr2,57.0277,50.6687,-6.359
PrNd2Zr,35.8301,34.3708,-1.4592
Ag5(IBr4)3,12.3329,10.9562,-1.3767
AcAl2InPd5,19.361,20.7588,1.3978
TaHgAu2,33.0105,35.0215,2.011
Dy2Tm2Tl,29.4331,32.4819,3.0489
Sb2PbAu,47.6055,43.0504,-4.5551
CuIO4,12.504,11.4779,-1.0261
PrAl2InPd5,12.4153,13.2763,0.861
Zn(SbPb)2,37.572,34.428,-3.1441
ThNbSe3,62.2894,55.6671,-6.6223
Y8Er6Sc,19.6156,21.0789,1.4633
Ba3Cu2P3,7.3171,4.6817,-2.6354
CsBa2RuO6,10.2576,10.2992,0.0416
KP5,4.9559,6.3508,1.3948
LaErAl2Pd5,18.7393,18.5673,-0.172
SnPb2Se,39.9241,39.5973,-0.3269
WSI3,34.3473,31.291,-3.0563
Pr(Cu3Ge)2,6.0403,7.2979,1.2576
ThPaSe3,33.2126,34.0879,0.8753
SnHgSe,22.7392,20.3279,-2.4113
Sn2HgSe2,27.4063,23.729,-3.6773
BeAlRu2,13.9314,15.5546,1.6231
Cs2ScIrO6,34.157,32.4731,-1.6839
FeNiMo,15.2893,11.7312,-3.558
Y8Er6Tl,22.7385,24.2081,1.4696
Ta2PtS4,56.0569,43.0395,-13.0175
Tb3Tm5,29.1325,31.2925,2.16
CaAgRh,15.4991,12.4127,-3.0863
Na(AsPb)2,26.2707,26.5987,0.3279
Cs2ScTcO6,38.7606,35.4213,-3.3393
K4CaP2,16.495,14.1147,-2.3803
KCaP2,19.1863,16.3691,-2.8172
Ce2TmCuC,29.5498,28.5431,-1.0067
NpPd,34.601,40.2174,5.6165
NbCuB2,41.5541,34.0023,-7.5518
CaNpSi3,21.0747,18.1912,-2.8835
BaSr3Rh,9.2055,8.6984,-0.5071
AcPrAl2Pd5,16.7923,18.2399,1.4475
Pm2Tm2Cu,23.4427,26.2701,2.8274
KCa2,6.2777,7.3879,1.1102
SrTb2Nd,22.9419,25.638,2.6961
VTe4,54.7955,49.4497,-5.3458
Re2TeRh,43.3679,42.0713,-1.2966
Y3ErRu8,20.9413,19.089,-1.8523
CaPm7,22.3581,23.6875,1.3295
Li2VTe,39.2729,33.6482,-5.6247
CePaSi3,19.8386,19.8052,-0.0334
CdGa2Ag7Sb2,28.8033,22.6779,-6.1253
AlAuSe2,32.22,32.4045,0.1844