Formula,E_hull_DFT (eV/atom),E_hull_ML (eV/atom),Delta (ML - DFT)
MnCdAu4,51.202,48.8327,-2.3693
RbRh3Se5,37.7788,29.3097,-8.4691
Cs2CaNiBr6,9.3881,9.4041,0.016
NaSrSe,25.0184,21.0568,-3.9617
LiInCu,10.7739,10.7032,-0.0707
Na2SrSe3,30.1345,24.3399,-5.7946
Tb3Y(ClO)4,18.3617,20.0409,1.6792
SrAcSm2,32.1354,34.4668,2.3314
FeSi4Sb,24.6585,17.1779,-7.4806
Ca2C,19.838,17.2028,-2.6353
MnCo4Mo,23.8287,22.5233,-1.3054
NdYO3,13.3931,16.1698,2.7768
TaAl,12.8367,19.9817,7.1449
AlReAu2,34.4696,37.1628,2.6931
Ce3OsRh,9.7714,11.9698,2.1984
ScCoRe2,35.9913,35.2097,-0.7815
AlReAu2,34.7607,37.1628,2.4021
AlReAu,30.8546,33.8054,2.9508
SnSbPd2,28.4912,25.4301,-3.061
Pm3DyS,31.0443,29.1755,-1.8689
AlReAu,30.1564,33.8054,3.649
NiSF2,20.7177,17.8466,-2.8712
Cs2TlAu4,41.185,41.6199,0.4348
Li2Cr2I7,15.8545,15.821,-0.0334
GaSiN,5.937,3.7317,-2.2053
CdSnPb,30.9192,32.4652,1.5459
ScCoRe2,44.9102,35.2097,-9.7005
Al2ReAu,23.2666,25.9466,2.68
Ho2ThPaC4,53.7465,45.1727,-8.5738
Ca2AcSm2,21.7207,24.5172,2.7965
NpMnCo4,24.4344,24.446,0.0116
TaSi,7.4178,17.5245,10.1067
Ho4TeC2,38.8997,35.1643,-3.7354
Ac2YTmO6,33.2704,30.8858,-2.3845
SrAl2Pb,18.2979,19.7398,1.4419
YZr2PaO8,26.6894,24.6597,-2.0297
PmScS2O,70.0165,58.9975,-11.019
Tm2SbRu,29.9502,31.4919,1.5417
Na3ZrAg,42.0124,34.067,-7.9454
AcY(PO4)2,17.0344,15.4561,-1.5783
RbBaGa4,7.2947,6.8923,-0.4025
Mg2Co,9.259,7.2044,-2.0546
SrZr2Ag,60.6817,51.7466,-8.935
InCuNi2,9.727,12.5018,2.7748
PmBSO2,7.1283,11.7443,4.616
MnFeI4,29.3959,27.9896,-1.4063
BaPmS2,32.5784,26.8389,-5.7394
MnFeNi4,52.393,44.5671,-7.8259
SrTbAl2,11.5609,13.7241,2.1633
Si(SbTe)2,38.3288,33.1328,-5.196
NaNiCN2,28.6672,25.6787,-2.9886
UFeCo,29.2326,30.2869,1.0543
NdFeCu,18.2529,17.6083,-0.6446
CaTa2Si,28.7037,28.6913,-0.0124
SiSbTe2,36.468,32.1383,-4.3298
InFe(CuTe2)2,34.4995,31.2576,-3.2419
LiTcNi,27.271,27.3567,0.0858
Si2SbTe,29.3536,24.2833,-5.0703
NaYbN,7.1872,10.7764,3.5891
SiSbTe2,36.1201,32.1383,-3.9819
Co2SbN,63.3602,54.8217,-8.5386
LiCa3Sc,7.6444,5.6628,-1.9816
NaSr2N,13.6317,13.8517,0.22
Ba2GeIrO6,18.1872,15.9818,-2.2054
YAlWO6,14.8206,14.9415,0.1209
MnGaBr4,25.0402,22.1434,-2.8968
MnGaI4,29.7829,28.1007,-1.6821
NdFeRu,29.545,24.2159,-5.3291
VSiTcIr,69.4524,58.7844,-10.668
Rb2CeSe3,22.8766,19.1601,-3.7166
MnGeSe4,49.9352,40.0408,-9.8945
Zr3CoB,60.4905,52.0776,-8.4129
Ca(PrTl)2,16.6977,17.8618,1.1641
Ho4Al2C,25.4129,24.8478,-0.5651
OsPt2Pb,63.0352,53.3831,-9.6522
SrZrBe,45.1224,35.7664,-9.356
Pm2SClF2,18.7174,17.167,-1.5503
Nd2SmYO6,14.9276,16.1307,1.2031
Cs3Na12F5,12.2905,10.0395,-2.251
RbTlIn3,22.354,22.9113,0.5573
MnNbTe4,67.9804,58.1464,-9.834
SrZr2Be,57.493,47.342,-10.151
Ca(AcPb)2,43.1802,45.6431,2.4629
Ca(NdGa)2,9.7948,12.1888,2.394
Zr2TlGe2,52.9378,47.8019,-5.1359
TlSO3,22.0173,20.1606,-1.8567
Zr4AlCd,69.5128,60.3708,-9.142
Nd3Y(ClO)4,17.9124,19.441,1.5285
OsPtRh3,47.8732,37.4256,-10.4477
Sr2YTaO6,26.2752,21.851,-4.4241
PmEuErAl,21.3175,23.8551,2.5376
AlOsW4,76.0944,67.6134,-8.481
SbTeRh3,40.3088,31.0065,-9.3023
CaPr2Nd6Sm,13.3337,14.5334,1.1997
V2BiPb2,78.758,68.2829,-10.4751
BaZn4P,8.0505,8.3563,0.3058
Y3Er(AgS2)4,39.3897,30.8478,-8.5418
MnRhBr,53.7553,42.3844,-11.3709
Lu(GaFe)6,18.4892,13.1812,-5.308
CuSiIrPt,39.3701,33.5281,-5.842
BaTl3Rh,29.5985,29.4432,-0.1553
Li3Ga3Ir2,9.3441,11.8578,2.5138
BeAlZn2,16.1287,13.1914,-2.9373
SiIrW4,36.0356,38.8979,2.8623
Si2TcTePb,45.3457,38.1678,-7.1779
MnSnPd4,33.4599,30.0958,-3.3641
Ca3C5,40.9515,27.6835,-13.268
Te3IrI,40.4464,38.4087,-2.0377
SrBe2Ge,7.0321,6.1726,-0.8596
Ba2NaICl,9.834,8.7074,-1.1266
K2Ti8O17,0.0871,1.7954,1.7083
Ho(TiC)2,23.4553,19.5242,-3.9311
Sr2SnGe,11.1901,14.1282,2.9381
Sr2TbP,14.0498,15.9701,1.9202
Ca(PuGe)2,24.6984,27.2727,2.5743
Sr2TaAg,32.6004,26.2631,-6.3373
SrTa2Ag,38.397,33.4132,-4.9838
PmSm2(TeS)2,37.6175,33.1266,-4.4909
MnPdSe4,51.3302,41.5615,-9.7687
SbPIr2,33.2729,32.2503,-1.0225
Tl4I2Br,36.8853,37.1333,0.248
SmTm4Pu3Se8,45.1734,41.6432,-3.5302
SrSi3Sn,27.0358,17.7829,-9.2529
Pm2Zn4GaPt3,35.0007,28.4195,-6.5812
MnRhBr,53.6169,42.3844,-11.2325
Ac2Al4GaPd3,20.5687,21.6197,1.0511
TaBe2N,27.7808,27.0402,-0.7407
MnSnI4,34.9006,32.6852,-2.2154
Sr2Si2Sn,32.8635,23.9313,-8.9322
Pm2Zn4Pd3Au,17.4978,18.9466,1.4489
SiTc2Te,60.9528,52.7435,-8.2093
Zr4MnPd,76.4671,63.7461,-12.721
NbRu3Rh,58.4234,47.7208,-10.7026
HfCr2Cd,45.5962,34.8598,-10.7364
K4Au2I,23.1918,22.4619,-0.7298
SrW2Se,44.0857,36.1915,-7.8942
YTm2(AgS2)3,41.1892,33.1181,-8.0711
ZrAl2Re,35.9495,34.9897,-0.9597
ScFe2I,23.1303,22.8806,-0.2497
MnZn4Ga,20.3442,18.3565,-1.9877
SrWSe3,45.666,34.2073,-11.4587
Pm2Er2Se2S3,40.0244,33.3157,-6.7087
Ca(SmPd)2,12.4248,15.5142,3.0894
SrTe2Mo,30.3223,28.2032,-2.1191
K2DyNpSe4,37.7932,33.82,-3.9733
Ca(AcPm)2,36.9434,38.5387,1.5953
Pm6RhSe2S3,36.9964,31.404,-5.5924
Li3Ga3Ru2,3.796,5.5634,1.7674
Bi2PtPb,63.0173,58.1025,-4.9148
Li3Ag3Ge2,14.0769,12.1064,-1.9705
BiPtPb2,62.4638,57.451,-5.0128
SiWAu4,41.2884,41.7511,0.4627
LaBi3Rh,36.4089,35.3821,-1.0268
NaSr2LaOs,29.1342,26.2323,-2.9019
Ca(PrSb)2,12.6676,10.9069,-1.7608
CsTiAsO5,10.9578,12.33,1.3722
ZnOs2W,88.7195,77.7747,-10.9448
PPdN,22.5427,17.6695,-4.8732
Th2HgPd2,26.9058,30.7954,3.8895
YIn(BiO3)2,23.541,23.9021,0.361
Na2Sr2Te,23.1663,21.7894,-1.3769
CeYInSn,30.1003,26.2327,-3.8676
ZnRe3N,85.4927,73.8887,-11.604
AlRe2P,41.5624,39.9539,-1.6085
Zn(IrN2)2,37.9364,32.7787,-5.1577
Th2CoRu,38.8963,43.021,4.1248
LaRh3I,44.6352,33.3585,-11.2767
AlReP3,41.0456,32.6126,-8.433
UPd3Rh,34.2993,32.4961,-1.8032
Nd2YErO6,14.9897,16.5074,1.5177
Sr3SnGe,14.0455,14.9756,0.93
SnGe3Pt,28.8256,24.0801,-4.7454
SrSnOs,14.5685,19.3386,4.7701
InSiGe2Se,21.2999,18.2624,-3.0375
La2Sm7Th2,37.5022,36.0489,-1.4533
PmSbRhS,36.5433,30.3119,-6.2314
Pr8Nd2In3,5.5126,6.3224,0.8098
Li3Ho2Tl3,23.2047,24.7187,1.514
BSb3P,29.2279,24.8146,-4.4133
Sc4SiSbC,23.0066,17.5755,-5.4311
AgPRu4,18.2938,18.2908,-0.003
TlAsW2,36.1452,38.1009,1.9557
Sr2LaCl7,1.5814,1.0687,-0.5127
Sn2As2Pt,25.3275,21.7416,-3.5859
Si2GeIr,20.7924,19.7057,-1.0867
Sb2AsPd4,20.4644,19.3583,-1.1061
Tl2AsW,39.4199,41.0153,1.5954
LiSi2IrF,27.2626,24.8929,-2.3696
Pr8Nd3In2,5.8949,6.9709,1.076
La3Pr2PuSe6,40.3534,32.5947,-7.7587
ErNpSc,27.2856,31.9505,4.665
Sr2SnAs2,16.633,12.8637,-3.7693
Sc2SbCSe,35.6294,26.71,-8.9195
Si2TeAs,31.2973,25.7315,-5.5658
NaSr5In4,16.7811,17.6598,0.8787
NaPmY,17.7504,18.077,0.3266
Ta2PdW,23.3869,30.833,7.4462
Th7(MnTl)2,69.3596,68.2006,-1.159
ZrAl6,17.5033,16.0549,-1.4484
TbYNb14,126.5792,100.0147,-26.5645
AlRuAu4,35.2068,36.9661,1.7592
BaCd2GeO4,13.8295,13.1451,-0.6844
MnCuNi3,46.4906,41.3721,-5.1184
LaEr2Hf,63.652,51.4309,-12.2211
CaPr6NdSm2,2.3238,2.6658,0.342
CaTb2Pr6Nd,2.6793,3.1466,0.4673
SiTe2As,38.1623,33.7589,-4.4034
Al2SbC,29.1526,23.0434,-6.1092
Zr2AlSi,63.4666,54.0342,-9.4324
Ac4Pm2Pr3,32.6792,35.0843,2.4051
NaGdZnSn,20.2542,20.7945,0.5403
CaZrAl2,27.5904,25.0947,-2.4957
YZrSbH,32.1568,31.1491,-1.0077
LiCaHf2Ta,66.838,50.0936,-16.7444
CeY(NiH)4,24.4557,21.7844,-2.6713
Sc2NiSbC,27.5909,21.1005,-6.4904
ZnOs2W,96.4495,77.7747,-18.6748
PmYH6,4.8155,6.3842,1.5687
CaZr2Si,53.3351,45.6887,-7.6465
YSnH2Rh,14.7105,9.2089,-5.5016
ZnOs2W,96.5718,77.7747,-18.7972
ScSb3C,43.0097,33.0282,-9.9815
BaSbF,13.647,13.921,0.274
SiTe2As,37.7881,33.7589,-4.0293
In(SnPb)2,33.4402,34.461,1.0209
AcPm4Pr,26.508,28.6162,2.1082
Y10Tl6H,25.7069,26.7771,1.0702
AlRe4Ru,30.2523,33.9003,3.648
In3Sn2Pb3,32.3652,33.2792,0.914
Sr3BSb,17.7505,17.0327,-0.7178
Th(WN3)2,24.616,22.7299,-1.8861
RePRu4,32.2472,30.07,-2.1773
Si3TeAs,29.085,22.59,-6.495
MnBeBi2,48.1694,45.357,-2.8124
MnBe2Bi,34.595,31.9661,-2.6288
Ca2Zr,32.5562,31.4955,-1.0608
CeNi2Sb,27.5029,24.078,-3.4249
SrZr2Ta,64.1975,54.0022,-10.1953
Zr6Nb5,118.0353,97.3524,-20.6829
AlSb,16.5751,18.4542,1.8791
Hf4ZrNb15,139.9236,107.2723,-32.6513
BaZrSe,48.357,40.3316,-8.0255
La3Y7Er,25.7503,22.5639,-3.1864
PrTlSb2,33.4099,31.5673,-1.8426
Sr2AgPb2,29.6273,29.9389,0.3116
MnAg2Ru,45.9484,37.9435,-8.005
GaBiPb2O5,19.9256,20.6588,0.7332
CsTm(CO3)2,8.5328,6.5187,-2.0141
Ac3Ce,50.3263,51.9271,1.6008
KSc2Mn,30.8303,26.9209,-3.9093
NaTlS2,36.2667,30.3648,-5.9019
PmRuRhPb,49.3071,43.6433,-5.6638
AcCe,45.484,48.2572,2.7732
Nd3YCo2,23.5112,22.9917,-0.5195
Ce2PmPt2,43.234,35.9444,-7.2896
SrAc2Ce,42.074,44.3253,2.2513
CsSn(CO3)2,27.9479,20.6202,-7.3277
Th3In4,34.4065,37.7474,3.3409
TaPd3O,30.6898,29.1164,-1.5733
MnCrNi2N,56.3911,47.3175,-9.0736
Sc6Sb2C,14.7612,11.9622,-2.799
Na6Au5,34.6632,32.4579,-2.2053
Pt(PbW)2,48.6523,47.5988,-1.0535
Si2SeO,14.403,10.0228,-4.3803
In5Te,23.5161,24.0966,0.5805
La3PmSe4,44.6181,38.3888,-6.2293
Rb5Na6,14.3428,11.569,-2.7738
Y2PuCo3,37.0636,33.2572,-3.8064
Zr2Ta3Nb2,84.3636,74.833,-9.5306
FeNi2GeN,30.0073,22.0533,-7.9539
PaSb3,44.4184,41.1744,-3.244
Hf(NiPd)2,31.4162,26.1549,-5.2613
SrAg2Os,30.1022,28.085,-2.0172
Ta2SbIr,40.3571,42.5179,2.1608
Y2Ga3Co,22.4799,20.266,-2.2139
NiSbBr2,23.0432,22.8051,-0.2381
YBPtCl2,60.144,47.4158,-12.7282
Cd4PRu,16.7068,18.0146,1.3078
Ce2SmPt2,43.2666,35.9788,-7.2878
NaBiPS2,40.2775,35.9581,-4.3194
BaLiSi4,13.558,9.4782,-4.0798
Cs3Pm2YTe6,31.0074,30.8423,-0.1651
Ca4MgN,11.4856,10.231,-1.2546
TaSbIr2,42.2451,43.6084,1.3633
Co2PAu,24.5903,21.7595,-2.8307
NaPIr2S,41.9126,36.6654,-5.2472
Pr3Pu2Se5,35.3398,33.0683,-2.2715
NaCrTe3,31.974,30.419,-1.5551
AlSb4Ir,38.6247,33.9988,-4.6259
TeO,23.0067,20.5647,-2.4421
Sr2TaTl,37.1374,32.9712,-4.1663
Cr3BSb,14.6581,12.8917,-1.7664
LiFeTe,36.7247,31.3818,-5.3429
FeTe,21.4663,21.2641,-0.2022
PrPu3Se4,48.907,48.1008,-0.8063
CaAcTb2,30.7926,33.3722,2.5796
LiFe2Te,27.6953,24.5587,-3.1366
Eu3ReO8,5.644,7.1514,1.5074
CaAcTb,32.1135,34.4941,2.3806
CsSrBr3,3.5674,5.0201,1.4527
Fe3Te4,24.0953,23.7879,-0.3075
TeO3,7.1861,6.1807,-1.0054
Li3Te2,13.0237,12.3638,-0.6599
Rb2YOsF6,11.3014,10.9578,-0.3436
BeTlPt4,68.3831,51.7972,-16.5858
TeP,19.1837,18.7447,-0.439
TeP3,8.7821,9.6956,0.9135
AlSb5,38.3463,32.318,-6.0283
NaCdHg4,6.9845,6.6076,-0.3768
TeP,19.3339,18.7447,-0.5892
NiP2Se,20.2659,17.5932,-2.6728
Th3Os2,46.9054,53.6605,6.7551
NdZr6Nb5,110.3645,90.2705,-20.094
NaCeAu4,39.4261,40.1617,0.7356
TeP5,10.28,11.3481,1.0681
Na2Ir,31.2095,29.7614,-1.4481
AsRu3Se,34.2042,33.1649,-1.0393
TaSbIr2,42.0741,43.6084,1.5343
SrGa3Fe2,13.4546,11.8276,-1.627
Rb2Ta2W,27.1673,26.2797,-0.8875
SrCaBeN2,17.0323,16.1712,-0.8611
ZrNb15,138.9049,109.3563,-29.5486
Zr4ReCl,73.7254,63.5607,-10.1647
GeIrN,11.2202,16.1931,4.9729
Ge2PtN,21.3701,20.6846,-0.6855
Sn2AsI,18.801,20.1458,1.3448
ErCd3Ag4,26.3999,23.8076,-2.5923
Mn7Be,87.0655,69.6171,-17.4484
ZrNb15,138.8959,109.3563,-29.5396
SrLi2Tc,24.5272,21.186,-3.3413
MnTc3N,78.0628,63.6346,-14.4282
HgTeI2,22.3206,21.8542,-0.4664
AsRuSe2,45.6083,41.0828,-4.5255
PRu3Br,17.4491,16.8524,-0.5966
BePdPbAu,32.1335,32.6902,0.5568
Sb2TeP,30.1891,27.3631,-2.826
NaSrInSb,25.2881,23.5741,-1.7139
Mn2NbCr,87.3522,70.6466,-16.7056
AsPd2N,21.6253,20.9902,-0.6351
BePdN3,31.1081,25.4486,-5.6595
SrPtSe,45.1718,35.1136,-10.0583
NaBeMo2Au,27.03,22.9722,-4.0578
BaCrOs2,28.8811,29.9859,1.1048
AlSiSeN2,22.4124,18.758,-3.6545
PRu2Br,17.0303,16.9393,-0.0909
ScMn2CdRh,55.4529,44.9374,-10.5155
AgSnPb6,46.0827,46.1617,0.0791
Al3ZnTc,25.8423,20.3762,-5.4661
AuC3F,50.6546,37.6777,-12.9769
Er4InPbO,24.8907,26.0942,1.2034
PtRhIN2,35.0833,28.1655,-6.9178
Au3C5,57.0521,43.9323,-13.1198
Y2GaCu3,27.3673,20.9742,-6.3931
Sm2Sc(SeS)2,41.6737,35.5305,-6.1433
K2MnMo,36.5199,30.5375,-5.9824
Sr2GeW,28.445,22.4502,-5.9948
SmYCBr,36.0581,32.0959,-3.9622
NdScAgRh,27.0805,23.9567,-3.1238
Nd4NO,9.3601,11.8993,2.5392
MgRhW4,34.6522,35.6417,0.9894
Zr4TcCl,82.455,68.8235,-13.6315
SrCeTl2,34.72,36.6691,1.9491
Y2CI,30.4171,26.4818,-3.9353
BaZrOs2,38.8099,38.491,-0.3189
ZnCoMo,13.0507,10.8242,-2.2264
SrTa2Cr,58.4639,43.0155,-15.4484
NaSr2GeF,18.9501,18.1108,-0.8392
IrPtIN2,34.3226,30.7871,-3.5355
Ca2Fe,24.5272,20.222,-4.3053
La2(PmMg)3,23.1267,20.6358,-2.4908
Cs4Ba3TaO8,11.9612,10.1962,-1.765
Cu3AuN,13.871,15.2683,1.3973
ErZn2GaNi2,10.8023,12.4567,1.6544
Sc4AlBr,7.1787,8.0375,0.8588
BaBr2Cl,2.1571,4.183,2.0259
Au3C2,49.9597,43.1596,-6.8
BeInTc,38.3062,34.1334,-4.1728
NaInPS2,33.8123,28.8265,-4.9858
SrLaZr,54.7813,46.5309,-8.2504
Zr3ZnPb,71.3342,62.5874,-8.7469
NaCdGeBi,26.942,27.0174,0.0754
TiCd2Pb,21.7105,24.3245,2.614
BaZrOs2,45.9535,38.491,-7.4625
In2PtSe2,40.7993,32.9318,-7.8675
AcYSe3,36.4347,34.0548,-2.3799
Fe2Si,-0.0,2.1938,2.1938
GaReN3,61.3017,53.9418,-7.3599
CdGeRu2,15.2228,18.3827,3.1599
TlAsRu2,26.1036,26.4924,0.3887
TlAs2P,23.663,22.681,-0.9819
TlAsP2,26.3997,24.6384,-1.7613
LiAc2(H4Pd)3,10.1371,10.9975,0.8604
AlCuTe2,24.2966,22.3885,-1.9081
TbSnPt,44.6258,38.4955,-6.1303
NaSb3Os,40.6642,35.7806,-4.8836
TcIBr2N,30.087,25.4733,-4.6137
Y3CuPd2,27.2302,21.8577,-5.3725
TaP2N,21.904,18.1657,-3.7383
Y3CuHg2,28.478,22.851,-5.6269
AlCuTe,19.0153,18.2682,-0.7471
Zn2TcPb,40.8011,37.5692,-3.232
NdZr2Nb5,116.5007,93.8254,-22.6753
Dy(Y2Er)3,14.4396,17.3046,2.8649
Ce(DyY3)2,12.4304,15.8703,3.4398
Y2TaF,33.6069,29.1083,-4.4986
YNbIrRu,58.0113,49.6803,-8.331
ScBe17Pd,6.3002,5.0765,-1.2237
PrEuSe,22.745,21.0663,-1.6787
CaMnBe,45.4624,34.8249,-10.6375
Pm3Nd2Ir3,24.5321,26.9684,2.4362
MnAlSe3,33.0283,26.8747,-6.1535
CePu7Se8,55.6124,52.0042,-3.6082
Mn2NiIr2,70.6863,65.0874,-5.5989
CaMgZn2,7.7965,7.0504,-0.7461
PrTmS2O,25.8662,20.7853,-5.0809
Zn(CoOs)2,19.3791,20.8445,1.4654
GeOsN2,27.2364,25.0281,-2.2083
BeCrN2,25.1043,21.1935,-3.9108
Ni2PdWN,24.3058,21.7423,-2.5635
CrPt4Cl,65.9409,48.3519,-17.5891
Cs2TmFeO4,10.2608,11.8544,1.5936
SiRuPb4,43.4584,41.5043,-1.9542
NdEuCuS3,15.9841,11.4526,-4.5315
Li2ScRhW,20.2121,17.7814,-2.4306
ScNiP2Rh,35.7539,26.3194,-9.4345
SrCrW,33.1529,24.1259,-9.027
LiSiAs4,16.4793,14.7092,-1.7701
Mn2CrTcN,67.0188,54.4882,-12.5306
ErScBr,15.9363,17.0607,1.1244
MnCr2FeN,39.6301,32.6393,-6.9908
FeSi2NiN,25.6729,18.1166,-7.5563
YTaBe17,6.8681,6.3407,-0.5275
Be17ZnOs,3.7953,4.2164,0.421
OsSe2IN,51.3386,42.2309,-9.1077
La(NbBi)2,82.4658,70.0272,-12.4386
KNa2PSe4,28.5161,22.1946,-6.3215
Li3SmAl3,7.7981,6.4547,-1.3434
Tc3AsRu,64.2696,52.6347,-11.6349
Pr3MoS6,26.1561,18.9653,-7.1908
GeAu3N,31.2248,32.2145,0.9897
BaLaCd17,19.7022,19.4379,-0.2643
Ac3H12Au5,10.6867,11.7031,1.0165
BaUSe3,22.321,22.8949,0.5739
YCoIN2,75.3982,65.1589,-10.2392
Be17ZnRe,4.8251,4.4985,-0.3267
PaBe17Zn,6.5937,5.8733,-0.7204
NpU2(TeSe)3,52.2935,48.9731,-3.3203
BaReAs2,26.5053,23.3058,-3.1995
Np2Te3F2,32.6679,30.2297,-2.4381
CsTl(ZnCl3)2,7.2907,8.0818,0.7911
Pm2Y3Sc4,10.8927,10.19,-0.7027
Ta4SiRh,35.5836,35.0162,-0.5674
CaMnBe,45.2226,34.8249,-10.3977
NaSn(PbBr4)2,24.2966,23.2409,-1.0557
SiSe2SN,34.7959,26.0995,-8.6964
Ac3Sm5,39.8741,42.2597,2.3856
Th2Sn3Ru,30.2282,32.0037,1.7755
RePd3I,24.3876,25.3091,0.9215
GaFe8,3.8812,5.0071,1.1259
BaSrN4,2.2908,3.0336,0.7427
TcWIN2,34.053,29.8415,-4.2114
CdHgRu3,15.5831,16.8242,1.2412
LiZr,36.3416,32.5985,-3.7431
Y6Er2In,13.2025,15.0123,1.8098
La4GeN,29.3383,20.8312,-8.5071
Y6InHg2,23.1613,19.4249,-3.7365
Sc4AlSb,13.0862,12.4647,-0.6215
WAuN2,14.2173,19.2737,5.0565
KSeS3,42.2671,31.1922,-11.0748
ScCu2Pb,29.3333,27.2537,-2.0796
InGa(AgTe2)2,32.1479,29.5703,-2.5776
Cd5Re,42.439,36.7457,-5.6933
SmYGa,16.1511,18.502,2.3509
K4CeY3Se8,29.5163,24.607,-4.9093
BeCu2P,9.0455,7.8306,-1.2149
LaCeSe2,41.3517,33.9899,-7.3618
BeCuP,8.8558,7.7308,-1.125
ReAuN2,78.3931,72.5537,-5.8394
YSn2Bi,37.8948,33.4179,-4.4769
Be3GaP,10.0392,8.8119,-1.2273
ErBe17Co,3.2174,4.0366,0.8192
ReTc2RhN,105.6166,89.7048,-15.9118
Lu3In3Ni2,21.0912,23.0172,1.926
Sr3BeMo,16.2649,13.9873,-2.2777
LiSiCl4,9.3669,8.4217,-0.9452
AlSb2PN,32.8123,26.8385,-5.9738
Ca2Co2Ag,12.8344,10.8745,-1.9599
KSb2Pb,38.6113,36.3378,-2.2735
TmBe17Cu,8.3911,6.4954,-1.8956
SrPm2Rh,27.6873,26.5859,-1.1014
Rb2Ce2SbSe6,33.9148,28.7686,-5.1462
Mg2F,6.0269,6.6331,0.6062
TbSm(PuSe2)2,38.6951,36.2023,-2.4927
BeTcRh,47.6059,39.5802,-8.0257
AlGaSbN2,15.9945,12.284,-3.7105
MgF,0.163,0.8718,0.7088
Pr3Au5S12,30.8855,22.731,-8.1545
V2P2H5,29.4783,23.1796,-6.2987
BeTcRh2,48.1078,37.7522,-10.3557
Sr2CdSn2,19.3341,18.6135,-0.7206
Pm2YHg,25.116,24.4287,-0.6873
Tb3Tm(PuSe3)2,43.618,39.861,-3.7571
BeTcRh2,48.2623,37.7522,-10.5101
LaY3Ga2,13.1866,12.6288,-0.5578
BeWN2,23.6184,24.575,0.9565
Tl2TeI,41.3996,41.0571,-0.3424
CuNi3N,8.0612,7.7885,-0.2727
CrOsRh2,37.205,31.9782,-5.2268
TiGePt,34.996,28.0694,-6.9266
NdY3Ga2,8.6972,10.779,2.0818
TaSb2Ir,42.404,41.6187,-0.7853
IrI,13.5695,17.4835,3.914
Y3Ga2Sn,4.1097,4.0462,-0.0635
AlIn2Te,21.2109,21.3172,0.1064
CaAlSe2,41.9018,34.0593,-7.8425
Sr2ScTl,18.2152,21.0479,2.8327
SrScBr,12.582,11.9493,-0.6327
Nd3YGa2,12.5455,14.718,2.1725
ZrF,33.1031,25.8293,-7.2738
SrSc2Br,10.6454,11.2999,0.6544
NbAgN2,45.1675,37.2408,-7.9268
ScCrBiS2,44.1789,37.53,-6.6489
K2TeBr2,14.1324,13.2105,-0.9219
SrScBr2,12.4103,10.9276,-1.4827
TlAgOs2,42.3956,43.1775,0.7819
AlRe2W,30.3906,35.7052,5.3146
Ge2As2Pb,14.2354,16.0829,1.8475
SiRhW4,36.942,36.9031,-0.0389
AlGeW,43.5014,34.3788,-9.1226
Tb3YGa2,13.5306,15.9117,2.3811
FeSiTcIr,38.4996,34.7933,-3.7063
Be2NbNi2,24.4712,23.0934,-1.3777
ScBe2CrS,23.3175,19.9215,-3.396
AlHgPb2,27.196,28.6944,1.4984
NaLa(YS2)4,39.9052,30.8431,-9.0621
Ta2OsI2,27.6837,30.4351,2.7514
ZrBePt4,75.7012,56.9945,-18.7067
Ba2GaGe4Au3,19.1645,19.4479,0.2835
Sc2MnTc,88.4876,73.7826,-14.705
CsCeAgSe3,31.6085,28.7434,-2.8652
ScC,10.7191,7.9357,-2.7834
MgRu4W,37.7008,29.5896,-8.1112
Sc2MnTc,88.122,73.7826,-14.3394
Na2TiBr,19.5123,17.1332,-2.3791
Na3AuSe4,38.6542,32.1934,-6.4609
Ba2IrPb,24.0508,25.5266,1.4758
FeNiOs,45.6577,39.6958,-5.9619
Nd3YGe2,18.6501,19.3914,0.7413
Pm2Nd3YSe6,33.7283,29.8732,-3.8551
Tm2Ge4RuPt3,37.4869,31.1341,-6.3527
CrRu2N,26.7322,26.1532,-0.579
K(YSe)2,20.9349,18.4981,-2.4368
Sr2LiRu,11.3663,13.6049,2.2386
Nd2IrPt3,59.2849,48.6745,-10.6104
Pm3Nd3YSe8,34.6479,30.4889,-4.1591
Rb2NbC,48.3029,38.014,-10.2889
InFeAs,36.4961,31.8375,-4.6586
CaScSi2,27.2958,21.8023,-5.4934
ZnPAu4,33.7993,34.9266,1.1272
Y2Ge3Pd,18.7931,16.7348,-2.0583
PaCuO4,3.0711,5.0582,1.9871
Nd2SmEr7,28.1487,30.1756,2.0268
TbDy2Tm,28.022,31.0118,2.9898
Ga2SnHg2,5.4402,7.0596,1.6194
Nd(Y3Tm)2,13.0935,16.0118,2.9183
Co2CuPt2,52.3688,38.8954,-13.4733
Mn2CrHg,46.8114,37.7493,-9.0621
YGe3Os2,14.671,17.9778,3.3068
YTc2Ge3,53.5582,46.6319,-6.9263
Pr3YPb2S,23.5429,22.0469,-1.496
Ca4LaMo,15.3544,14.0533,-1.3011
TbTm2(PuSe2)3,47.7973,44.7359,-3.0614
Sc4AlSe,12.5222,12.2242,-0.298
Sr2RuSe,19.2654,18.8047,-0.4607
LiTl4Si,40.361,39.7821,-0.5789
Al3Ge3Pb,26.3956,21.5751,-4.8205
AlIn2Pb,23.9599,25.5346,1.5747
TbNd4Pb15,45.3414,46.2679,0.9264
CuP2Ir,25.6054,21.5606,-4.0449
BaGe2PbO,21.1755,20.3257,-0.8499
Mn2AlCr,52.9736,43.5821,-9.3915
Tb2Tm2Mg7,12.109,13.2179,1.1089
ZrGa3Ru,28.9558,26.4067,-2.5491
Ta2SbIr,40.4127,42.5179,2.1052
CdInGa,13.6807,15.83,2.1493
LiMnCd,40.1954,33.9199,-6.2755
Ca2YPuO6,32.3555,30.4186,-1.937
Na(InPb2)4,40.6132,40.5978,-0.0154
Ta2SbIr,40.4867,42.5179,2.0312
NdPu4Au5,54.4656,56.1291,1.6635
IBr2N,14.6205,14.099,-0.5215
P2AuN,25.2582,22.0003,-3.2579
VNi,47.2679,38.7341,-8.5338
AlRe2Rh,25.2853,28.9701,3.6849
Ta2CdI,24.2623,28.1101,3.8478
Pm2NdSmTl4,33.4767,35.0888,1.6121
Al2ReRh,23.368,22.7371,-0.6309
AcLa4Pm7,37.3043,33.3286,-3.9757
La2Ta,40.4598,37.6705,-2.7893
K4Rb3Na2,10.3992,8.569,-1.8302
Na7(CdIn)2,22.6876,19.9348,-2.7529
La4YEr15,33.0851,31.1786,-1.9065
TbNd(SmHg2)2,9.0594,10.6889,1.6294
SrGeS3,23.6579,17.6532,-6.0047
TbPm2NdHg4,8.9917,10.6557,1.664
NdZrAs2Rh5,42.5948,33.6622,-8.9326
Ba2YCu3SO6,13.7748,12.3835,-1.3912
Nb3CuI,92.8411,74.6202,-18.221
Cs2CdPt2,49.1378,39.6857,-9.4521
GaS3Br,37.8417,28.9329,-8.9088
PrGaSn2,13.6458,14.5187,0.8728
La4SiRu,42.5041,30.8281,-11.676
Ba2RePb,35.6467,30.9092,-4.7376
Rb2Mn2Br7,20.7415,17.4474,-3.294
YScPBr2,26.8496,22.1163,-4.7334
Na4SnPb,26.1969,23.9951,-2.2018
GaIrS3,38.686,31.1291,-7.5569
EuThPb,49.0337,51.3741,2.3404
Cd2SbSe,32.9458,29.1188,-3.827
Rb2Mn2I7,28.7305,25.9206,-2.8099
Zn4SiW,14.8508,15.3231,0.4723
ZnMoCl4,13.2666,8.3995,-4.8672
BeC,12.3629,11.8264,-0.5366
Mn2Cu2Br7,28.4566,24.0326,-4.424
Th4FeTe2P,51.0898,51.057,-0.0328
HoBiS3,44.1297,37.1733,-6.9564
La(Y2Er)4,21.7257,21.6832,-0.0425
GaPbAu,36.0589,37.5422,1.4833
Mn2Ni2Ir7,65.4377,62.2102,-3.2275
CaAlSn,2.234,6.6329,4.3989
TmTlV2O8,27.2516,23.2905,-3.9611
ZrCdMo2,37.1259,36.2318,-0.8941
ZrCdMo,44.4222,42.0646,-2.3577