Formula,E_hull_DFT (eV/atom),E_hull_ML (eV/atom),Delta (ML - DFT)
SrSiSe,40.0628,29.4808,-10.582
PmYHgPd,23.621,21.9972,-1.6238
SrSiTe4,40.3364,34.6983,-5.6381
Mg9In4Pb11,28.3488,29.0985,0.7497
Dy11Mg9Ag4,18.5815,18.3769,-0.2046
Na2Si2Tc,30.0965,23.2742,-6.8222
Y2Si3HgPt4,54.2005,40.5909,-13.6096
Tl2IrW,46.9035,49.1395,2.236
TaIr2Pb,43.9358,47.6484,3.7126
RePtAu2,56.4047,49.4947,-6.9099
TlAg2PS4,43.1931,35.9166,-7.2765
PmPuSb4,45.8815,41.8039,-4.0776
UAgSn,28.3654,31.2526,2.8872
In9Sn4Pb11,35.0288,35.7492,0.7204
La2TbCeBi5,47.2936,45.134,-2.1596
Nb11Ni4Ir9,81.8207,69.481,-12.3397
Li3PbAu3,25.2528,25.982,0.7292
GdYHgRh,31.6334,27.5006,-4.1327
Li7PbAu2,14.8541,15.5321,0.678
KSnRu2,12.0743,14.7923,2.718
AgAsPBr2,21.4641,18.3192,-3.1449
CuSnSb,54.2961,46.475,-7.8211
CsRe2Tc,44.4193,43.7955,-0.6238
SrSi2Te,32.2015,24.661,-7.5404
EuTlGaAu,33.309,34.831,1.5221
SrReSi,38.3104,32.5041,-5.8063
La2BiI,44.285,38.4781,-5.8069
Tb2Tm6S,32.5214,32.8453,0.3239
Y11Mg9Cu4,18.0496,14.2272,-3.8224
TiRuN3,24.998,21.9413,-3.0566
Ba4YCr,23.9785,20.4584,-3.5201
Sr2SiTc,45.4752,36.5384,-8.9369
SrSiPb2,44.3241,37.3273,-6.9969
ReTcPd,40.9013,42.592,1.6907
Pm2Pu3Ir2,69.9896,66.4297,-3.5599
YCr2TcHg,53.6868,43.9038,-9.783
SrSiTc,55.004,43.2504,-11.7536
YTmTcHg,68.9262,59.6751,-9.2511
GaCoNF2,49.9241,44.1519,-5.7721
SrSiTc2,65.2664,51.5574,-13.709
SrSiTe,38.2128,30.479,-7.7338
Rb2MnGeBr6,17.7103,15.2323,-2.478
Y4HoAg5,23.705,22.0816,-1.6233
CoReS3,44.1471,34.699,-9.448
Ba2ScCd,3.9685,6.2702,2.3017
CoReRh2S,41.5549,33.2447,-8.3102
SrCoSi2Os,26.5237,22.0773,-4.4464
SrTl2Si,40.7198,36.2342,-4.4855
Sr2CaSi,24.3535,17.7308,-6.6227
CoRe3S,38.5991,37.3159,-1.2833
CeGa3CoCu,16.0504,14.562,-1.4885
Ga2CoCu,18.6134,16.1503,-2.463
SrHfSiTe2,61.5053,44.9854,-16.5199
K2ZnOs,19.5119,19.53,0.018
Sr3AlSi,20.8113,18.0623,-2.749
Pr3YHo5,12.8799,14.6001,1.7202
Tm2Rh3S4,47.4364,35.8471,-11.5893
Co2ReAsS,32.1317,26.29,-5.8417
GaCo2CuW,27.9823,24.2592,-3.7231
Ba(SrSi)2,25.4093,17.3625,-8.0468
SrMnSi2,40.9951,34.6606,-6.3345
TbHPt3,40.5879,29.5984,-10.9895
CoAs2SBr,24.8259,19.1512,-5.6747
ZrGaCoCu,45.2868,37.7964,-7.4905
PmY2I,18.5956,20.8696,2.274
CoAs2SeS,42.6631,35.1073,-7.5558
Sc8CuTe3,8.9973,8.5282,-0.4692
Sr2MnSiSe,46.9853,35.7425,-11.2427
MgSc3N,0.0,1.0638,1.0638
CaSi2Te,24.1118,19.3718,-4.74
PrGd2In,18.2748,20.8903,2.6156
Zr3SbN,69.9939,58.7323,-11.2615
YHgRu2,20.9465,20.2063,-0.7402
SrTcN3,16.4618,12.9957,-3.4661
Sr3Ac2(ZnPt2)2,48.5754,40.4625,-8.1129
TiCdCoNi,38.7779,32.5228,-6.255
CaAc2HfS6,53.3442,41.7005,-11.6438
Nd5Sn3S,20.3018,21.3953,1.0935
Sr2SiSn2,21.4436,18.1782,-3.2654
Cs3Er(NpSe3)2,42.919,39.178,-3.741
WI2Br,25.0984,25.8876,0.7892
InTcAgSb2,47.1707,39.6811,-7.4896
SmSnS14,48.013,34.6735,-13.3395
V2SI,84.5905,65.4124,-19.1781
AcSn2GePt2,48.4933,41.1193,-7.3739
ThAl2Co2B,30.2893,23.5966,-6.6926
Ba(CaPb)2,19.4481,21.9726,2.5244
Ba4Ga4GeS12,30.2142,20.1219,-10.0923
Na2HfV,77.4643,58.0702,-19.3941
TcRuN2,52.2912,47.1681,-5.1231
Rb2Np6Ir4S17,45.4634,37.7934,-7.67
LaAl2W,23.9995,23.3592,-0.6403
HfRhSeN2,49.1645,35.7575,-13.4071
LaAlW2,33.5229,33.1997,-0.3232
Sr(CoSi)2,13.6991,10.7481,-2.951
AlPBr,27.4734,23.7003,-3.7731
V2CuNi2,48.7939,40.6561,-8.1378
RbMn3Sb,69.9329,55.5113,-14.4216
RbMn2Sb,62.1509,50.064,-12.0869
U(CoAs)2,19.3731,18.8207,-0.5524
CaNi2Pb,23.8667,20.6298,-3.2369
Mn(InTe2)2,43.6681,39.6715,-3.9966
NaTbPmAl,19.701,20.8803,1.1794
Y2HgRh2,32.9056,24.8139,-8.0917
BaCa4Ru,6.8089,7.9675,1.1587
Co2CuBO,18.7885,14.731,-4.0575
PrGd2Zr,38.1596,35.4992,-2.6604
UCoAs2Ru,20.8742,20.2266,-0.6477
PmCoBO4,0.0,0.1462,0.1462
ZrAlP,49.3014,42.2177,-7.0837
SiTe2Se,37.326,31.9533,-5.3727
Sr3SiSn,24.2229,20.0073,-4.2156
YTmHgAu,31.4328,30.6762,-0.7565
VI2Cl,40.3811,34.8507,-5.5303
Mg9Sc4In11,13.0473,11.6894,-1.3579
Pm2Tm2Th3,44.2264,47.6171,3.3908
Mg9Sc4Pb11,25.7975,26.7637,0.9662
Si2TeSe,29.9434,25.8369,-4.1065
La2Tb3Tm7,33.2355,32.3772,-0.8583
SiTe2Se,37.1044,31.9533,-5.1511
UCoAs,33.7279,34.3849,0.657
SrGa2Si,22.3287,17.708,-4.6206
Ir2WF2,27.8635,27.4102,-0.4533
Sr2TaSi,34.7708,26.8414,-7.9294
YHgC2,39.279,29.1562,-10.1228
Hf2CoNi,94.1682,68.2119,-25.9563
SrZrSiAg2,48.3967,36.9242,-11.4725
YHg2Sb,23.3352,19.8645,-3.4707
SrTl2SiOs,43.938,39.7903,-4.1477
UTcSb2,63.3038,57.3982,-5.9056
NaPrEuAl,13.1907,13.4366,0.2458
YSn2Pd,56.4482,49.0945,-7.3538
TcNi2Se,38.5984,33.4431,-5.1553
CrInPb2,33.7492,34.6005,0.8513
Sr3BeSe,21.8072,17.0378,-4.7694
TcNi2Se,38.4808,33.4431,-5.0378
CoPtF2,24.4006,19.161,-5.2397
SrSiGe2,18.4961,14.2044,-4.2917
Sr3SiSn,23.8639,20.0073,-3.8565
Sc2RePb,41.7072,36.526,-5.1813
Zr2SeBr,63.21,53.5927,-9.6173
Ac2Pm2Tm3,38.8899,40.5547,1.6648
Hf3PSe,97.0851,68.8131,-28.272
Ce3Co2CuGe6,17.4497,16.5986,-0.8511
CeNdCoCu,31.2706,28.2407,-3.0299
Na9Tl11In4,35.7368,34.3621,-1.3748
YHgOs2,34.0518,30.609,-3.4428
Li3FeP,19.0728,15.5411,-3.5317
CeSmCoCu,31.3293,28.2487,-3.0806
TbPRhN,27.1109,21.5898,-5.5211
Sr2SiTc,45.3279,36.5384,-8.7896
Ac2AlSi3Pt4,56.444,44.3427,-12.1013
Sr2SiTe4,31.3637,27.7438,-3.6199
Cs2Er(AgSe2)2,36.0326,30.8641,-5.1685
CsSmAgO3,7.3359,8.1832,0.8473
Pr2Co3CuGe4,12.7243,10.3358,-2.3885
Re2SnI,32.1221,34.6572,2.5351
Ac2Pm3Er2,37.6057,39.8132,2.2075
TiNiOs,13.9001,17.6201,3.72
SrSi3Ru,28.6566,19.2192,-9.4374
BaRe,37.676,30.8749,-6.8011
Sr2SiGe,19.6251,15.1283,-4.4968
Ba3SbOs,17.3468,16.886,-0.4608
Sr3SiSe,29.3827,22.5262,-6.8565
FePbN3,15.8452,14.7718,-1.0734
YHgOs2,34.2793,30.609,-3.6703
NiPd,0.0,5.6649,5.6649
ReTeSN2,79.2324,68.4575,-10.7749
NbTlAg2P,52.697,43.8963,-8.8007
NpPS4,50.1581,42.1715,-7.9867
Y3HgOs,25.3411,23.276,-2.0651
CsTeRuO6,17.589,16.3071,-1.2819
PPbS4,43.1485,35.7236,-7.4249
Nb11Ru4Pt9,100.7032,77.8107,-22.8925
Pr6Ag(SnS7)2,36.5366,26.4579,-10.0787
Tb(TlS)3,35.5761,29.964,-5.6121
Na9Mg4Hg11,9.4555,7.907,-1.5486
CoIF2,7.3225,8.9316,1.6092
Al3Pt,19.2994,15.7851,-3.5143
Cs2CaI6,20.2188,21.338,1.1191
Nb11Ru9Rh4,86.2681,68.859,-17.4091
Ac2AlPt,54.8478,50.2655,-4.5823
ScPd2W,17.0872,19.2152,2.1279
RbHfB,49.5815,35.9452,-13.6363
Y2HgGe,27.0571,23.6516,-3.4055
K2SrReSi,28.1323,23.0529,-5.0794
KPr2MnO5,29.5076,23.7442,-5.7635
Pm3(SmHo)2,25.8745,28.0051,2.1306
HfZrSe2Br,69.7889,53.2709,-16.5181
Li(In2Pb)2,27.1742,27.3615,0.1873
Np4PaS5,61.7514,58.7994,-2.952
YHgGe4,14.4343,13.4298,-1.0045
YZrHg,49.5312,41.9348,-7.5964
CsCa2I,14.3551,15.2488,0.8937
Hf2VGa2Co5,38.8249,30.3602,-8.4647
MgAlSi2,15.8867,14.6845,-1.2022
RuBr2N,32.314,29.4827,-2.8313
Cs3CaMo,19.7955,20.06,0.2645
HfGaCoOs,49.6051,42.055,-7.55
TaRh2Au,45.5821,42.355,-3.2272
Hf3Ga3CoGe2,53.0083,39.9217,-13.0866
HfGaFeCo,49.5117,37.2501,-12.2617
Rb(RhS2)2,46.164,32.9167,-13.2473
Tb2(TmSc)5,19.365,20.9747,1.6097
Ac2P(N2F)2,23.033,23.0714,0.0385
Gd3Ga3CoSi2,18.7963,17.7162,-1.08
Tb3Tm2Sc3,19.5835,21.2052,1.6217
ZrCoHRu2,27.8936,26.3378,-1.5559
Sr12As6N,17.1347,13.8695,-3.2652
ZrScSeBr2,36.0439,29.5843,-6.4595
HfZrPaTa,86.6478,75.0659,-11.5819
Ba3Li2Al7,12.8785,9.2051,-3.6734
Sr2VN3,3.0922,0.5034,-2.5888
TlCr2Sb,28.9056,27.0102,-1.8953
Tb2Pm3Dy2,26.061,28.449,2.388
U2Ge2Ru,25.5208,29.3587,3.8379
YZr2Hg,61.7723,52.3227,-9.4496
Y2ZrHg,49.8222,41.9352,-7.887
GaPRuAu2S,30.6381,28.5208,-2.1173
CaNiCN,26.3826,20.2318,-6.1508
Hg2HPd8,12.7704,13.9571,1.1867
Rb(RhS2)2,46.169,32.9167,-13.2523
ReIrW,40.8733,47.2361,6.3628
Rb2CoGeI6,15.7247,15.3378,-0.3869
CaMnTe2N,37.502,33.0316,-4.4704
YZr2Hg,61.8668,52.3227,-9.5442
Hg3HPd6,6.8345,8.5841,1.7496
MgScB2,1.6238,3.1614,1.5377
TbCePd4,19.6881,22.3838,2.6957
YZrHg2,36.9734,31.8238,-5.1496
Pm11Nd4Er9,26.5443,27.8578,1.3135
Cd2CoGeI,16.2203,16.8139,0.5937
ZrAuF3,34.0986,30.5071,-3.5915
Sc(Zn2Ge3)2,12.7828,11.7858,-0.997
CoGeI2,12.5817,14.2829,1.7012
Tb4Pm9Nd11,25.0829,26.3626,1.2798
SrTc2As,57.1058,46.7779,-10.3279
CoGeTe2I,24.9832,24.2108,-0.7723
Tb9Nd11Dy4,25.8904,27.2164,1.326
H(Pd2Pt)3,32.3632,27.3833,-4.9799
YHg2W,23.3042,21.7808,-1.5234
Zr3AuF,69.6405,60.3974,-9.2431
SrZrAs,47.6295,39.4024,-8.2271
SrTa2As,32.2351,29.1681,-3.067
Rb2HgBi2S5,27.8786,21.4389,-6.4397
POsAuS2,42.7224,39.7094,-3.013
SrAs2Pb,22.1921,24.6337,2.4417
YHgW2,32.9776,32.9665,-0.0112
ZrSbSeBr2,48.7781,40.9956,-7.7825
ErHgRhPb,32.3815,30.6186,-1.7629
Mg3ZrI,26.7518,23.6089,-3.1429
Sr2ReAs,33.1652,25.3068,-7.8584
YHgW3,36.192,35.479,-0.713
Rb2YCuCl6,17.797,16.8094,-0.9876
SrIn3Co,15.6624,16.9988,1.3364
NaAg3S,35.2774,26.887,-8.3904
SrAsN2,11.419,10.4368,-0.9822
CsRb2SiP2,13.7912,9.6572,-4.1341
TiGeI2,15.9958,16.514,0.5182
BiPIrSN,31.9541,29.1608,-2.7933
Sr3Sm5Te12,19.0524,19.9398,0.8874
OsPbAu2,47.8895,49.7047,1.8152
Y2HgW,36.0785,32.1974,-3.8812
NaAg,17.5074,11.1532,-6.3542
ZnSb2Pd,29.3639,26.5122,-2.8517
YCo2HgGe,23.8088,20.2605,-3.5483
SrTlAs2,22.1854,21.4121,-0.7734
Nd9Er4Hg11,13.6163,14.6106,0.9943
PaSnGe,25.6973,30.0258,4.3286
CsTa2SnOs,35.227,36.6624,1.4354
Li2TlPb2,28.375,30.1788,1.8039
CsGa2Ir,16.8565,20.1426,3.2861
Sr2DyNpAs4,24.7572,23.0905,-1.6667
Sr3Nd2HfAs6,28.3435,22.7264,-5.6171
Zr2SiOs2,49.3692,45.6576,-3.7116
LaReAs2,28.1962,28.5113,0.3151
TbScCuRh,37.0094,30.7817,-6.2277
KLaRe2,37.2526,36.0382,-1.2144
Ba2Th(Cu2S3)2,27.5656,22.131,-5.4346
ZrSi2Os,42.5073,39.2663,-3.241
PmYHg,24.7928,23.2857,-1.5071
SrCrTcAs2,33.8234,25.3301,-8.4933
SrYHfAs2,42.4943,30.9051,-11.5892
ErTm2Al,23.5298,26.5074,2.9775
LaScRe2,56.5722,46.7314,-9.8408
ScFeRh2Au,48.2202,39.4416,-8.7786
CaPb2Se,60.128,53.5802,-6.5478
Ba3Zr2ScO9,27.9115,24.4008,-3.5107
Sr3Th2ZrAs6,31.3394,28.2806,-3.0588
Y2ScHg,26.4103,22.7723,-3.6381
Sr3Si2BiPt9,67.4666,48.5228,-18.9439
Mo2IrRu,29.5971,27.6761,-1.921
CoOsN2O,71.2513,60.1029,-11.1485
CaPb3Se,59.6172,53.229,-6.3882
MgAg20(BiO4)4,20.6955,17.6094,-3.0861
MgAg20(BiO4)4,20.669,17.6094,-3.0596
MgAg20(BiO4)4,20.6812,17.6094,-3.0718
Sr3AsW,29.3367,21.2753,-8.0614
SrNbCr2As,42.0174,31.7967,-10.2207
CsTc2NiO8,17.5241,14.6217,-2.9024
TaCoN2O,53.0848,47.1978,-5.8869
Cs4Hf2Sb,62.3487,48.6182,-13.7305
NiIr2W,26.5224,33.0959,6.5735
Y2BeCuC,37.4779,28.462,-9.0158
Sr3CrAs,17.3797,13.2603,-4.1194
SrZr3As,67.7165,55.8404,-11.8761
MgAg20(BiO4)4,20.6549,17.6094,-3.0455
SrGe2As,15.55,13.9898,-1.5602
SrAs2Os,23.9475,22.2133,-1.7343
SrRePS2,49.721,38.2378,-11.4832
LaEu2In,31.8301,29.7134,-2.1167
SrTc2As,57.9708,46.7779,-11.1929
ErGaSn2,19.3882,21.2995,1.9113
SrAs2RuSe,35.016,30.7751,-4.2408
YScHg,13.5808,13.9536,0.3729
SrLuAs2,20.6481,19.7938,-0.8543
Sr2TaAs,31.9306,24.0251,-7.9056
Mg2ScBiRh4,32.052,26.7648,-5.2872
ZnBiPb2,41.984,43.6081,1.6241
ScGa2PRh,32.449,25.1704,-7.2786
Sc2NbCuRh,54.8864,42.4392,-12.4473
K2TaZn,18.058,18.5337,0.4757
SmEuPb2,39.1076,40.9552,1.8477
NbOsCl3,40.2114,34.0727,-6.1387
K2TaZn,18.3342,18.5337,0.1995
PmYHg,20.6355,23.2857,2.6502
CaLa3(PmY3)2,26.0953,22.3418,-3.7535
Nb8CuS20,77.593,59.0061,-18.5869
PmY5Hg3,26.0334,21.725,-4.3085
LaCeThPa,52.8392,52.3581,-0.4811
LiIrC2,35.6531,29.7146,-5.9386
VGa2I,42.9123,35.5449,-7.3674
SrAsW3,39.1306,33.918,-5.2126
Pm2YHg3,16.0998,16.0686,-0.0312
Sr2As2Pb,23.6232,19.3995,-4.2237
TlPI3,26.12,25.1677,-0.9523
CeNiC2,32.7959,23.591,-9.2049
Pm3Y2Hg3,21.5313,20.1012,-1.4301
Pd2RuS,27.6477,25.8613,-1.7864
SrAgAs,20.5615,16.2724,-4.2891
SmCoSbO,19.7788,21.8828,2.1041
CaCr2Os,26.2631,24.1982,-2.0649
FeSbMo3,27.0796,25.4252,-1.6545
CaCr2Os,25.9414,24.1982,-1.7432
Pm4YHg4,13.0366,13.7372,0.7005
Mn3WI,73.276,61.5281,-11.748
La3TeI,43.7112,34.4545,-9.2567
NbGaRu2,46.1455,41.0307,-5.1147
AcAlGaPt2,49.9703,41.1878,-8.7825
SrTaAs3,22.0293,18.5458,-3.4836
PrLuRe4,31.3835,35.1475,3.764
SrAsOs2,32.0914,31.919,-0.1724
Li2Pm4C,23.0936,21.9998,-1.0938
PmY4Hg,20.3585,18.802,-1.5565
In2SbCl2,15.4584,14.6509,-0.8075
LaTeI3,31.8731,28.5623,-3.3108
RbSbW3,37.0866,34.5623,-2.5243
SrZr2As,60.15,49.4345,-10.7155
LuPaFeCu,45.6595,43.6533,-2.0062
Sr2TeAs,24.3304,21.8936,-2.4368
SrAg2As,26.4787,20.3824,-6.0963
Sr2AsOs,24.4712,22.8228,-1.6484
PmDy4Y2Sc,18.7959,19.598,0.8021
K2TcIr,41.9566,34.603,-7.3536
NaAgS3,46.1852,33.7687,-12.4165
RbPS4,38.7259,27.4989,-11.227
Ag2MoCl,24.2525,18.8775,-5.3749
Ba(GeMo)2,11.0388,12.5367,1.4978
Sr2ZrAs,38.8745,32.2606,-6.6139
Sr2As2Ru,15.1205,11.9397,-3.1808
Sr2HfAs2,40.0895,27.2053,-12.8842
SrAsRu2,19.2076,17.9166,-1.291
DyScCu4,20.1777,18.7341,-1.4436
Y3HgN,38.2663,35.3713,-2.895
TaMnNiPS,61.9234,56.9213,-5.0021
CsNa2Hg4Bi,15.6024,14.9105,-0.692
Al2PbBr,25.1365,24.0269,-1.1097
SrTcAs3,31.1635,25.4382,-5.7252
Ca(IrRu)2,34.3877,29.5598,-4.8279
CsTaBe,26.4563,25.398,-1.0582
Sr2ReAs,32.9319,25.3068,-7.6251
YTaHgN2,33.318,29.4218,-3.8962
Sr2ScAs,22.7912,18.781,-4.0102
CoSbWO2,31.0521,28.4093,-2.6429
Ta2AsP,30.1387,31.2567,1.118
Sr2ZrNpAs4,33.4399,29.7849,-3.655
Sr4SmTh3As8,26.0418,24.0474,-1.9944
NaZnI3,20.2782,19.4055,-0.8727
ZrTaAu,60.8494,58.3715,-2.4779
Y4HgSbN,33.2452,27.6539,-5.5913
Tb3Tm3Sc5,18.7556,19.7474,0.9918
Y3HgN,38.6535,35.3713,-3.2822
SrMn,23.8356,20.0813,-3.7542
Sr3CdMo,17.8955,16.7177,-1.1778
NaZnInSn,18.2024,18.3712,0.1688
Na2Bi2Au3,42.6846,42.0867,-0.598
BAs2I,7.6574,9.668,2.0107
CuHgRh3,32.6416,23.7944,-8.8471
ScTi3Os4,22.7785,26.1639,3.3853
NaBi5Au4,48.6145,49.0834,0.4688
SrCaCr3,19.6454,14.4148,-5.2306
SrZnRu,0.8357,5.4067,4.571
Y2HgBi,38.4362,34.8394,-3.5968
K4CoIr,17.631,17.2065,-0.4245
AcDy2Ho6Er,27.5766,29.6968,2.1202
LiNb2(HgSe3)2,52.3198,40.5623,-11.7575
Be2HgIr,11.2441,13.744,2.4999
YHgSN2,38.0402,30.1518,-7.8885
Cu2HgRh2,22.6148,17.8235,-4.7913
PaAgSn,34.1034,35.2744,1.171
SrAlAsN2,17.5749,14.4818,-3.0931
Zr11Ga9Ni4,48.8893,41.9515,-6.9378
ZrTlAg,60.1696,53.6736,-6.496
Ba2CaPb,11.8453,14.9222,3.0769
NaCoOs,18.6332,22.9378,4.3047
MnPOsS2,53.415,46.3007,-7.1143
CsTaBe3,21.8987,18.7911,-3.1075
Y2HgIr,35.6217,32.3628,-3.2589
Li2Dy3Cd7,17.9747,19.0055,1.0308
SrEuInBi,28.4718,30.2815,1.8097
Na(Te4Au3)2,43.0098,40.8606,-2.1491
SrTa2AgAs,32.809,28.2463,-4.5627
BaSc3Cr,13.1291,10.7213,-2.4078
Li2Ce3Pt7,57.651,43.4508,-14.2002
Dy3Hg5Pd,10.4453,11.9396,1.4943
KP2SCl,18.1652,16.2547,-1.9105
LiMn2SbC,60.9498,47.4914,-13.4584
SrSn2As,16.9727,17.0135,0.0408
SrCr3As,16.3491,10.7441,-5.605
InAs4Au,18.2674,18.9771,0.7097
YHgIr2,34.2676,34.4997,0.2321
CdCu2Mo,24.1366,18.9552,-5.1814
Sr2AsW,28.2543,21.2582,-6.9961
SrPmSe2,32.3327,28.8893,-3.4434
MnVS4,75.2223,56.4754,-18.7468
PmNd2TmSc,18.9043,20.0628,1.1585
YHg2F8,9.1421,9.839,0.6969
InRh,29.0522,25.7261,-3.3261
Eu2HgGe,19.99,18.6019,-1.3881
ReHg2As,13.2206,14.953,1.7325
K3ZrSn,32.0564,27.4422,-4.6142
SrSiAs,30.0417,23.2661,-6.7756
SiTc2Rh,62.1076,50.1306,-11.977
YGaHg2Os,20.5166,19.5222,-0.9943
Y2BeHg,25.1832,21.4921,-3.6911
TcSbF3,32.3688,27.6382,-4.7306
LiSm2OsC,38.7594,32.0976,-6.6618
InP2SeS,28.2396,25.9478,-2.2917
BaAl7,7.4947,6.6465,-0.8482
NaTm2Ag,29.4834,28.3491,-1.1343
BeRh2Au,36.4333,30.87,-5.5633
Cr4NiPb,23.3057,22.2247,-1.081
Cr2IrPb,30.0322,29.8437,-0.1885
LiTbFeC,32.5727,28.0419,-4.5308
Ga2Ge2Bi,14.5079,16.3349,1.827
GeOs2Au,29.0706,33.2217,4.1511
YTcN3,41.1544,34.3878,-6.7666
LiNiC,6.6121,5.8484,-0.7637
Sr(GeBi)2,28.3517,29.5509,1.1991
Rh4PbS8,53.7158,40.924,-12.7918
SiTc2Rh,62.2208,50.1306,-12.0902
K2TiSi,8.2941,8.613,0.3189
LiY2HgF,21.0157,17.5085,-3.5072
LuPaFe2,43.6489,39.6488,-4.0001
La(AlIn)2,15.6752,15.3327,-0.3425
ScSb2F,22.2077,18.8879,-3.3198
Ca3SbW,21.6758,19.9216,-1.7542
Pm3Dy5,26.4302,28.3628,1.9326
Pr2Er2Tl3,28.5719,30.871,2.2991
LaAlIn2,19.9092,19.1753,-0.7339
SiTc2Rh,62.0227,50.1306,-11.8921
Na(TcRh)2,54.8284,44.5544,-10.2741
SiTcRh,52.0176,41.7083,-10.3093
GeMo2Br,8.2182,11.2714,3.0531
MnNiRu2,52.7711,51.3744,-1.3968
AlSnF3,22.546,19.3265,-3.2195
YPuHg2,30.2674,29.0484,-1.219
CsTaC2,48.3491,38.5307,-9.8184
LiAsCBr2,27.7738,22.3724,-5.4014
Co2ReAs,0.9754,4.847,3.8716
Pm2NdSmSc,17.677,19.6073,1.9303
USb2As,41.9484,39.6261,-2.3223
Co2ReAs,24.5153,4.847,-19.6683
Y4Hg3Pt,35.8051,28.6435,-7.1615
Li4InPb,13.0568,13.3183,0.2615
Sr2CaRu,14.2115,14.2795,0.068
Ba2CaRu,5.8398,7.5088,1.6691
Li2ZrNi,26.6494,24.3995,-2.2499
Ga(HgPb)2,22.7369,23.808,1.0711
BaSr2Ru,8.3607,10.6513,2.2905
ZrNpS4,56.8781,47.2668,-9.6113
ZrPaS4,63.9484,52.6244,-11.324
Sr3CaRu,15.3909,14.3066,-1.0843
YHgRh2,37.0974,29.3751,-7.7223
Cs2K3Sn2,17.9166,17.8369,-0.0798
Ba2SrRu,8.0092,9.3206,1.3114
VSi3I,39.8572,29.9226,-9.9346
InGeF2,17.6031,18.6672,1.0641
NaV3(PbN3)2,43.1519,38.1337,-5.0183
LiCa2GeC,17.0237,13.4829,-3.5408
Ac2SbN2,34.421,35.8162,1.3951
BaCaRu,7.4898,9.8504,2.3607
Pr5Nd3Mg,2.0838,4.1238,2.04
PaTaTi2,28.6859,32.727,4.0411
LiLaOs2C,39.3207,34.0189,-5.3018
Na3CoPt,34.9262,26.9473,-7.9789
LaRu3W,51.8088,38.268,-13.5407
InSn2Sb,26.6222,26.1122,-0.5099
YHg2Rh,24.4681,19.1541,-5.314
BaCuHg2,0.2701,1.4363,1.1661
La2RePb2,50.7523,46.0789,-4.6734
NaAu3Se,43.0844,40.5303,-2.5541
ErIn2Sb,28.0844,27.7887,-0.2957
SrMn,47.1773,20.0813,-27.0959
YHgBr2,17.6935,15.6487,-2.0447
Na2AuSe2,34.7073,29.9486,-4.7587
TlSbMo3,30.696,30.4438,-0.2522
KRbBe2Sn,10.2736,7.7089,-2.5647
YHgBr2,17.6869,15.6487,-2.0381
PrEuCu2,9.7231,11.0235,1.3004
Sc6Si3C,26.4598,21.2468,-5.213
Nb2GeCl,74.23,60.4123,-13.8177
BaSrMn3,63.7434,51.2629,-12.4805
InSn2Sb,26.6205,26.1122,-0.5083
Sr2FeCu,24.6368,21.6072,-3.0296
Al7In,5.2112,6.2138,1.0026
TaOs2Pt,52.3542,50.0016,-2.3526
Bi2SbN2,31.3362,32.9325,1.5963
BaSrMn2,53.8186,44.3428,-9.4758
K2MnBr4,18.9649,16.0744,-2.8906
VSiSe,56.9916,43.2166,-13.775
LiCeAu,23.8868,25.8536,1.9668
YInHg2Pt,32.2432,25.1359,-7.1073
YHgPt3,64.2713,47.048,-17.2233
K3AsBr6,7.3272,7.8078,0.4806
La2RePb,49.0984,43.8263,-5.2722
LiFeF4,0.0897,0.6116,0.5218
Hf2ZrPa,113.3577,89.999,-23.3587
LiFeF4,0.1726,0.6116,0.439
CoAsIr2,30.459,31.5409,1.082
SrGa2AgN,13.2259,11.8999,-1.326
Rb3HfCr,34.9585,24.934,-10.0245
Ni9Pt11Rh4,51.5342,38.175,-13.3592
PmBeSb2,28.4767,26.2169,-2.2598
KCoIr2,26.8556,29.362,2.5064
KCoIr2,26.7905,29.362,2.5715
LiFeF4,0.1076,0.6116,0.5039
TcSeI3,42.647,36.8151,-5.8319
SrIrI,27.364,24.2851,-3.079
Ag2MoCl,23.9251,18.8775,-5.0475
BaSr2PbO5,7.283,8.5967,1.3138
Rb2MnNb,58.7441,46.6255,-12.1186
OsRh3C,50.5214,38.2424,-12.279
KLa2Pb,41.9853,35.4784,-6.5069
SrOsBr3,19.3472,18.7753,-0.5718
CaVSeN2,55.1512,42.5745,-12.5767
Y2Hg3Pt,31.1237,24.11,-7.0137
CaVCuN2,29.9658,23.7735,-6.1922
La3SbPb,50.2118,40.8648,-9.3469
Ba2LiFe,17.4957,14.6394,-2.8563
TiNbS4,61.1837,46.0747,-15.109
CuNi2I,7.3996,9.9089,2.5092
Y2HgAs,27.8135,23.6479,-4.1656
MgCr(H4Os)2,9.0305,9.4775,0.447
TmTl2AgF6,14.4464,16.1006,1.6542
YHg2As,14.822,13.1543,-1.6677
Al(InP)2,19.1621,16.8248,-2.3373
LaSb2Pb,47.9364,42.0186,-5.9178
Y2HgAs2,23.5545,20.2091,-3.3454
LaSbPb2,50.0799,46.4389,-3.641
Y(HgAs)2,14.0235,12.9723,-1.0512
Sm11Hg9Ir4,26.6118,23.1278,-3.4839
ScSi2Pb,34.06,31.3997,-2.6603
GdHg6,4.2951,4.648,0.3529
Y2HgSe,31.6411,26.2516,-5.3895
CaCuPb2,27.8868,28.7449,0.8581
La(SbPb)2,44.2152,40.0557,-4.1594
Y3VHg,49.186,39.2668,-9.9192
AcYSiHg,37.9511,36.0032,-1.9479
Pr2Nd2Hg3,5.2294,6.7594,1.53
BaCuHg,2.664,3.3748,0.7108
Ca3Ni5Te12,18.2337,15.832,-2.4016
LaSb2Pb,47.9962,42.0186,-5.9776
AcEuPt4,74.1295,58.6809,-15.4486
BaGd3Cu,19.5059,20.0662,0.5603
YPuThHg,47.199,46.9002,-0.2987
KSn2,17.6927,18.4775,0.7848
YHg2Ru,16.6173,15.716,-0.9012
CaY(TmHg2)2,11.1341,11.3013,0.1673
Er4CoRh2,31.0702,29.7884,-1.2818
K2Ga4SnGe3,10.4892,10.962,0.4728
LaTiN2,5.1468,5.1535,0.0067
TlNi2Se,28.1656,27.249,-0.9166
Sr3Li2Nb4O13,31.3407,27.1704,-4.1703
ErScNiRh,22.1858,21.1613,-1.0246
Gd2ErTh,38.6638,41.6888,3.0251
Pr2Nd2Tm3,18.9287,20.5653,1.6366
Si2IrAu,30.2663,28.8792,-1.3872
NaInAs2Br,15.3633,14.6233,-0.74
TbLuScRh,28.344,27.4097,-0.9343
Ba3Gd,7.53,8.4947,0.9647
GdHg3,6.7739,7.9622,1.1883
GeTePO2,20.6852,17.7322,-2.953
YTa2Hg,39.9979,36.1712,-3.8267
AcPRhN,36.7728,30.6948,-6.0781
CaSi3,13.4265,7.8135,-5.6129
NaBiTe,30.8695,30.7822,-0.0873
YTaHg2,30.5865,25.8645,-4.722
YTc2Hg,84.8168,67.0786,-17.7382
SiOsI2,23.3549,23.2599,-0.095
Ce2YBi,23.1321,26.9025,3.7704
K6Na2O,11.2984,10.1261,-1.1722
Pu3ThS4,61.8785,58.6281,-3.2504
NaCoPS4,41.2045,30.6434,-10.5612
Gd2ScPb,29.1364,31.9636,2.8273
ScTlV2Rh,73.1741,58.3423,-14.8318
Y2TcHg,74.2543,61.8985,-12.3559
NaTlPS2,39.6912,35.0927,-4.5986
GdSc2Pb,22.8702,25.6472,2.7771
YTi2Hg,18.3519,15.696,-2.6559
SbPI2,23.7775,21.2485,-2.529
Be2PbC,23.997,23.2714,-0.7257
BeInBr2,10.3487,11.7189,1.3702
YTmInHg,24.7865,24.2433,-0.5432
YTm2Hg,27.7948,27.2887,-0.5061
Be2InBr,8.6828,9.3745,0.6918
Y2TmHgN,40.2343,35.3261,-4.9082
Pr2Nd3Ho2,17.2979,19.3552,2.0573
Pr2Nd3Hg2,8.9063,11.1578,2.2515