Formula,E_hull_DFT (eV/atom),E_hull_ML (eV/atom),Delta (ML - DFT)
Tl2Te2Au3,43.5019,44.4551,0.9532
AcV(H4Pt)2,30.9253,24.7057,-6.2195
HfTaTe4,51.3257,45.2944,-6.0313
RbBa2Se,9.02,7.8518,-1.1682
GdTlPb,43.9844,46.0737,2.0894
ErPaIrRh,46.5848,46.8994,0.3146
MgOs5,35.8932,38.9085,3.0152
Y2ZnHg4,15.1008,13.1272,-1.9736
GdTl2Pb,45.5907,47.0883,1.4976
CdIr2Pb,40.2169,42.5088,2.2919
V4CoC,89.6006,69.6159,-19.9847
ZnCr2Si,11.5176,9.3093,-2.2083
Li2GdPb,20.4067,22.4896,2.0828
CeLuNi2,22.841,23.0861,0.2451
As2Pd6Se,25.7071,25.5878,-0.1193
Y3AlO6,15.7974,14.8512,-0.9462
Na2Ti2Nb,45.9493,36.7549,-9.1944
CeGePd,16.5741,19.747,3.1729
YCr4Hg,22.2192,18.2519,-3.9673
YReHg4,15.4378,15.0849,-0.3529
SrSiTe3,27.2732,24.0264,-3.2467
Ag2AsBr6,15.5669,14.4571,-1.1097
TcMoRh,52.914,45.4276,-7.4864
Al5Cr,0.0,1.8071,1.8071
SmSb2Pb,41.3715,39.0445,-2.327
Al2ZnGe2,19.2346,15.2863,-3.9483
Np2AsPt6,75.8412,59.554,-16.2872
YCuNiHg,43.0099,38.8286,-4.1812
YCoHg2,20.9129,18.2894,-2.6235
YHgP4,13.9054,11.1238,-2.7816
Eu2Co3Si,7.6841,9.9022,2.2181
AlTcCl2,27.7555,22.7764,-4.979
GaSiNiOs,10.9123,13.9559,3.0436
Ce3Zn7Cd2,13.6779,14.9,1.2221
YAl,23.3306,4.449,-18.8816
Zn7Pt2Au3,31.0048,27.411,-3.5938
BaTaAs2Se,32.4467,30.6219,-1.8248
Eu2CuPb,28.6336,30.4095,1.7759
MgCoW2,25.7605,26.8183,1.0578
Zn7Pd2Rh3,19.4668,16.8185,-2.6482
InFeSe2,31.8346,24.5922,-7.2425
Y8ZnHg4Ru3,28.3767,23.3258,-5.0509
Tb5Sc,23.0337,24.983,1.9493
ReAgAs2W,54.9379,44.6323,-10.3056
Y(AlSi)2,28.8709,23.2148,-5.6561
Y(ThOs)4,40.5002,43.6559,3.1557
Tl2SbPb,49.7862,48.5918,-1.1944
CrSiPt,38.0018,28.3164,-9.6854
ReMoI3,28.8094,26.7434,-2.066
GaOsRu,0.0246,9.5948,9.5702
Ac(TbAl3)2,14.6746,16.8225,2.1479
Tb(ErAl3)2,10.9806,13.2917,2.3112
GdYHg2,19.3765,18.5135,-0.863
Sr(Al3Ag)2,10.5253,9.9967,-0.5286
Ti2Nb2Mo3,48.308,43.3847,-4.9233
RbNa4Sr,19.0158,16.057,-2.9588
PuI,47.0253,48.3251,1.2999
YHgPCl2,34.4987,32.7522,-1.7464
TbHfTe4,55.5607,47.8109,-7.7498
Mg2VSn2,31.2533,26.5756,-4.6778
TcMo2Rh,43.1668,38.3426,-4.8242
K4V2Tc,58.6058,45.5942,-13.0116
P3RuSe,15.0553,14.7796,-0.2757
Ti2CuRh,16.0708,15.2726,-0.7982
NaLu2In,27.8352,28.7784,0.9432
BaZn4Mo,8.8934,9.4004,0.507
LuAlIn,18.4457,20.9982,2.5524
Sc7Pb,10.9139,12.5619,1.648
Tm(ThAl3)2,19.6514,22.1094,2.458
AlTl2In,28.7722,31.1473,2.3751
CaTcRu3,30.1993,28.3559,-1.8434
CrNi2Ru,19.9741,20.4125,0.4384
Al2Cu2Mo,11.6771,8.7022,-2.9749
Ta2Ti2Nb3,72.6507,62.5497,-10.101
Y(ZrAl3)2,31.6766,27.5628,-4.1138
AcTlTe4,42.6084,43.1784,0.57
Nb(Al3Zn)2,19.3819,17.1238,-2.2581
CrSiAg,19.0767,15.2992,-3.7775
Sb2IrPt,49.9297,43.5594,-6.3703
TeIr3I,40.848,41.154,0.3061
Tb5Tl3H,27.2729,29.4597,2.1868
TeIrI2,29.0271,31.3911,2.364
AcPt3Au5,62.9442,55.3413,-7.6028
V2Co3Ge2,41.9451,34.9491,-6.9961
Sc2BiPb,23.7057,28.6156,4.9099
Th(ZrAl3)2,30.8053,29.2719,-1.5334
TmPaTe4,43.3984,43.5738,0.1754
Al(InAg3)2,22.7197,19.2286,-3.4912
Al(CdAg3)2,22.9166,19.7235,-3.1932
TmTlTe4,37.1027,37.4519,0.3492
Ac2Si4Ir3Pt,39.9133,36.1845,-3.7287
Cr5Si,9.8877,9.1114,-0.7763
Y2Ag3Hg4,21.3274,17.3231,-4.0042
TlTc2Ag,67.8342,55.2979,-12.5364
Ac(MnP)2,53.2294,46.4421,-6.7873
TcPtRh2,70.0791,53.148,-16.9311
TcPtRh2,70.0234,53.148,-16.8754
Ti4NiMo,18.404,19.0337,0.6297
Ba2MnP2,20.4377,16.5403,-3.8973
TcPtRh,69.3231,54.2988,-15.0244
CeO3,0.0,0.8093,0.8093
TmIn2Pb,30.4292,32.1789,1.7496
Cs(BeBr)2,9.4951,10.1428,0.6477
Li2CuPb,14.9639,16.2096,1.2457
NiBi,17.121,22.9705,5.8495
Al2Cr,0.0011,2.5098,2.5087
NbBAs2Se,54.676,46.3677,-8.3083
Li2LuCu,10.5996,12.2244,1.6248
Ag3Pb4,43.5519,41.0987,-2.4532
NaTiTl,31.0998,30.4826,-0.6171
Tc2PtRh,80.9437,64.5635,-16.3803
PdRu2C,22.4927,23.0457,0.553
Zn2SiTc,31.6509,26.9864,-4.6646
TcPtRh2,70.2723,53.148,-17.1243
CsScNbB2,36.109,31.0858,-5.0232
Rb2P2Pt,26.3256,16.7834,-9.5421
SrRe3Sn,39.6133,36.1677,-3.4455
Ce2SiO6,0.0,0.5333,0.5333
YHgBr3,11.8093,10.916,-0.8933
Hf(CuP)2,39.7804,28.7519,-11.0285
LiNiRu2,4.4368,10.5032,6.0664
Sc(ReMo)2,32.9066,30.573,-2.3335
ScRe2Mo,50.0055,42.8068,-7.1987
TiRu2Pt,31.2303,28.0887,-3.1416
TaZnRu,20.0704,24.4372,4.3668
ScReMo2,41.0264,36.1397,-4.8867
LiCeF5,6.8738,9.0194,2.1456
Li2Ce2Si,17.3155,17.8973,0.5818
MoH2(WSe3)2,34.4158,30.8897,-3.5261
ScRe2Mo,50.0968,42.8068,-7.29
RbNb3B,88.9787,70.2636,-18.7152
Li2SiF,9.3727,8.5654,-0.8073
Rb(PRu)2,26.5235,24.4234,-2.1001
ScRe2Mo,50.2912,42.8068,-7.4844
Cs2Al2Ge3O10,1.8234,1.9539,0.1305
Ta2Os2O,22.2031,28.4722,6.2691
V2Zn2Co3,49.4096,36.0292,-13.3804
CdPb2Au,42.9509,44.5976,1.6467
Ac3GaPt5,71.2121,57.7378,-13.4743
PaAg3Te5,41.1991,37.7164,-3.4827
Mn2ZnIn,56.7441,47.4849,-9.2591
Np2CdGa,42.0595,44.6886,2.6291
Sc2Re,45.901,37.9982,-7.9027
Cd2PbAu2,37.0572,38.0837,1.0265
ZnSbTe,31.969,29.0616,-2.9075
TbTm2Al,17.9947,21.3295,3.3348
Tb2(TmAl)3,18.9914,20.721,1.7296
Ba2SmPaAs4,15.7963,17.5053,1.709
Co2TcAs,37.706,30.6524,-7.0537
Tl2SbRu4,31.4448,31.9911,0.5462
Ti4SnBi,1.7637,5.6139,3.8502
YRh2I,28.0308,22.9578,-5.073
Tb3(TmAl)2,20.8156,22.8162,2.0007
Ce2Mg,13.082,18.2919,5.2099
Pm2ErPb2,31.4956,34.624,3.1284
LaY(ScHg2)2,13.4982,11.8006,-1.6975
CrNiIr2,36.1946,37.398,1.2034
SmY2(GaAg)2,19.1545,18.7646,-0.3898
ZnGeSbTe2,29.7588,27.2978,-2.461
Sm4YAg,19.5755,20.6169,1.0413
SrMoPd2,15.0195,14.231,-0.7885
LaMn2Be,56.803,45.5549,-11.2481
K2(SnSe2)3,33.5081,28.249,-5.2591
ReTe3,42.831,40.9406,-1.8905
PmNd(YHg)2,20.5278,18.7696,-1.7582
Sr2TaTe4,36.9044,32.8149,-4.0894
TePbI4,30.8554,30.8307,-0.0248
Sb2TeMoPt,50.0958,39.7763,-10.3195
Y2AgSnPt,42.6101,32.5528,-10.0573
Ba2SmUAs4,16.0883,17.7091,1.6209
ThSc5,9.5271,12.184,2.6569
CuSi2Ir,20.9274,19.1918,-1.7355
Pm2PbBr,35.1377,35.5151,0.3774
TlTeI4,30.5943,30.4132,-0.1811
Pm2Y2Hg,25.5185,23.1519,-2.3666
Hg3Au,10.7898,11.6218,0.832
TbY3Hg4,21.731,18.7209,-3.0101
Ca2YTmHg4,8.211,8.3258,0.1148
Er2Ga2Ni5Ge,7.7423,9.5883,1.846
Li2YErHg4,11.8531,10.9033,-0.9499
YTcHg,82.4337,68.6318,-13.8019
CoSiRh,22.9765,18.0621,-4.9143
LaGe2Pd2Pt,31.8915,26.7087,-5.1829
ReRuS2,42.6303,37.8435,-4.7868
Cs2PrPCO7,9.8302,6.3147,-3.5155
RbSrRu2Se,39.4595,33.2333,-6.2262
ThI,38.8449,43.6821,4.8372
BaTaSi,19.1226,18.0968,-1.0258
Np2IrOs,56.3262,60.097,3.7708
Al(GaAg3)2,23.0756,19.0634,-4.0122
InSbPt2,60.7404,47.2622,-13.4782
NaTeW2,31.1806,33.7759,2.5953
Nb2V2W3,93.6909,80.55,-13.1409
InNiIr2,22.5072,27.0361,4.5289
Al2TcSe,39.4228,31.5147,-7.9081
Sr(AlN)2,0.0915,2.5811,2.4896
Tb6Nd2SmY,20.1496,22.3095,2.1599
CrSiAs2,22.4627,19.2057,-3.2569
Al2TcSe,39.1676,31.5147,-7.6528
CuSi,8.2673,7.4734,-0.794
Sc3Tc,64.4457,48.7764,-15.6693
Hf3ZrRu,110.705,81.4162,-29.2888
Sr2Zn15Pd2,9.0565,9.8927,0.8362
Sr2Br,14.9715,14.1217,-0.8498
Ca7Cl,4.7697,5.5165,0.7467
V2Re2W3,64.5215,60.2682,-4.2533
NCl,0.0,2.401,2.401
Mn6GeB2,58.9187,47.2517,-11.667
Rb2PtI7,24.7916,22.394,-2.3976
Al2TcSe,39.4525,31.5147,-7.9378
Y2Ag2Hg3,23.0366,18.7413,-4.2953
LiAl2W,14.2151,15.3424,1.1273
ZnC3Br,43.6828,30.2625,-13.4203
Tb2Si4Pt3Rh,41.9052,30.9036,-11.0016
Os2Pt2W3,126.81,101.6218,-25.1882
RbLa2Br8,16.2244,14.5442,-1.6803
Pr3(YHg)2,12.2686,10.2368,-2.0318
CsSrNb,49.6593,42.8684,-6.7909
AcMg2ZnPt2,42.6482,34.3877,-8.2605
Rb2TaCrI,36.0893,25.8503,-10.239
Ca2YHg6,6.1356,5.8846,-0.251
CaSi3Hg,14.6991,9.5142,-5.1848
Tb4TeOs,12.8207,17.9886,5.1679
CuRePb4,44.1685,44.9977,0.8292
SiTcSb2,49.8329,41.2154,-8.6176
KAgAs,17.7185,15.6862,-2.0323
LaAuN2F,22.2899,19.8548,-2.4351
CaPb2W,37.8537,39.6981,1.8444
BaZrC2,48.8421,37.2093,-11.6328
Na3FeBr,23.9026,19.553,-4.3496
Pd(PbAu)2,39.6358,41.4736,1.8378
Sb2MoPb,40.0994,37.2752,-2.8242
BaCrSi,14.2589,12.2125,-2.0464
YAgHgAu2,35.5737,32.6037,-2.97
MoOs3Ru,36.5545,36.2352,-0.3193
Os2PtRh,55.6516,48.5714,-7.0803
NaAs2AuBr,20.9037,19.8604,-1.0433
BaTa2MnSe,46.9646,40.8872,-6.0774
BaCrSi,13.9719,12.2125,-1.7594
YAgHg2Sb,25.6515,20.7664,-4.885
Ac2ScIrPt,52.7096,45.2956,-7.414
BaZnHg2,1.5379,2.5165,0.9786
AcScPtO4,57.183,49.8323,-7.3507
LaMn2Be,62.9771,45.5549,-17.4221
MgMnIr,48.4162,44.1295,-4.2867
LaYHg4,16.4466,13.2693,-3.1773
YZrAgHg,44.8525,37.7129,-7.1396
FeTcTe2N,36.1568,32.2653,-3.8915
Ca(AlSi)2,20.2391,17.1646,-3.0745
LaAl3V,39.5172,30.7904,-8.7268
YAgHgRh2,36.9165,27.102,-9.8145
CsBa2Ta3O10,7.0937,7.4101,0.3165
La6Nd2Al,40.3494,31.0338,-9.3156
CoSCl,21.9219,17.8551,-4.0667
MgAsP2,14.2821,12.4874,-1.7947
Ac8Sm6Pt,50.3214,49.624,-0.6974
ZnSe3,38.0676,31.031,-7.0366
AcSmZnPt,45.9868,41.4792,-4.5076
Nb6AlRu2,98.0417,79.7486,-18.2931
Ta2Nb6Al,102.9791,84.7848,-18.1943
MgZnSe,19.9052,17.7172,-2.188
Fe2RuPb,37.8378,30.0627,-7.7751
NaBeNi3,9.0393,9.7181,0.6788
Y2Al4Ag3Hg,25.2052,19.7665,-5.4387
BaNaMg14,4.3373,4.1216,-0.2157
NpMnRu2,50.4816,47.9602,-2.5213
Ba3ZrRu,23.6928,20.8473,-2.8455
Mo4Ru3,19.0461,19.3554,0.3093
Hf3Ru2,81.7455,62.4423,-19.3032
SrMg2TlIn2,18.0003,19.0935,1.0932
SmYHg4,12.0846,11.4904,-0.5942
Pr2Nd6SmY,13.6101,15.2961,1.6859
BaCu2Re,25.7385,21.7199,-4.0186
BaZr3Ru,62.4663,53.5355,-8.9309
RbSr3Ca,11.5739,10.4388,-1.1352
Cd3Ni,15.8851,16.372,0.4868
BeGaI3,23.6191,23.5045,-0.1147
Ti3(InCu)2,9.6555,12.0814,2.4259
Ta(MnSe2)2,60.6874,49.7872,-10.9002
NdYPtRh,43.3546,35.891,-7.4636
K2BiSbW,33.8221,31.7028,-2.1194
Sc2Se3,22.9743,20.7313,-2.2429
Sc3GeC,20.1132,15.8909,-4.2223
CeYHg4,12.0426,11.53,-0.5127
ZnFe3H,0.0,0.5495,0.5495
Th(BPt3)2,59.6073,45.06,-14.5473
Zr2Ti3Cu2,34.5367,30.2235,-4.3131
PrNd2YHo,13.4237,15.3332,1.9095
NaMg14Cu,5.4707,4.9576,-0.5131
ZnPtSe2,48.563,37.462,-11.101
Tm2PbF8,13.4542,14.4153,0.9611
NiPt2Cl,47.9854,35.8927,-12.0927
Y2Be4CuIr3,23.9373,21.7586,-2.1787
SrLa2Se,41.4355,31.9724,-9.463
NaB2CI,32.2474,25.7339,-6.5135
YTm2HgN,36.1894,33.6984,-2.491
BaSr2Br,10.9969,10.7422,-0.2547
Y2Hg2Pb,30.3599,24.6048,-5.7551
In(CuBr3)2,10.9065,10.8322,-0.0743
NaLi(ZnH3)2,1.5885,1.7849,0.1964
NaLi(H3Au)2,9.2069,9.7602,0.5533
Tm4TeIr,28.1652,31.2888,3.1236
TaP,15.6898,19.6623,3.9725
YInHgRh,29.4426,24.8566,-4.586
Ba3Li(BO3)2,3.5088,3.5723,0.0635
CrSiBr2,25.6739,22.738,-2.9359
MnNiRu2,60.2159,51.3744,-8.8416
Cs4V2PO4F9,17.9518,15.361,-2.5908
AsOs2Ru,22.7125,26.3449,3.6324
Ga2BiAu2,29.7746,31.7657,1.9911
Y4HgPd12,23.6043,22.0316,-1.5727
UPaN,13.8346,21.0798,7.2452
TaP3Ru,20.227,15.7527,-4.4743
MgRu,10.3863,12.7206,2.3343
Cs2Zr(Ge2O5)3,1.8736,1.9843,0.1107
TaHgI2,17.3518,19.3778,2.026
Cs2Ga2As2O9,13.6628,12.5062,-1.1566
Pr3(CuSn)4,41.0697,34.8498,-6.2199
CePd6Au,22.0349,23.4411,1.4063
Y2Ag2Hg,28.2385,24.5487,-3.6899
YAsRu,19.2696,16.3875,-2.8821
YCoHg,32.1724,26.8316,-5.3408
RbNaMg14,4.0544,4.1531,0.0988
TiSbSe2,31.4414,26.6809,-4.7605
BaTa2MnSe8,45.871,38.2746,-7.5963
YCoHg2,24.016,18.2894,-5.7266
Cs2Zr3OF12,15.2224,15.6919,0.4695
Cs2Ca4U(GeO4)4,18.5016,17.1192,-1.3824
YTeAs2,18.552,19.2908,0.7388
TeRh3Pb,49.6054,40.2029,-9.4025
Na2NpIrO5,10.5251,12.7932,2.2681
Dy(AlB3)2,3.9809,6.6295,2.6486
YTc2Sb,95.9312,79.7104,-16.2207
EuTmGa,22.1243,24.4761,2.3518
CdInSN2,20.7254,18.2354,-2.49
Re2GeC,62.6452,52.6802,-9.965
ZrCd2InN,33.4214,30.1614,-3.2599
CrBSb2,19.8551,18.116,-1.7391
Y12Tm7Sc,19.4662,20.6091,1.1429
Ce3Nb2N7,29.3139,25.1121,-4.2018
Ac2ScSb4Pt3,58.0231,47.5191,-10.504
BaInSe2N,23.9969,20.2663,-3.7306
Nd3Pa,35.618,38.0321,2.4141
NaNd2PbO5,6.0582,7.4954,1.4372
AcSc(PtO4)2,41.3773,34.8433,-6.534
Nd3Np,30.0253,32.0069,1.9816
Cu2BCl6,5.1018,3.6892,-1.4126
ScBe2Tl,19.4662,17.9416,-1.5246
AcAl2Pd2Pt,31.875,29.1404,-2.7346
Nd3Pa,29.9784,38.0321,8.0537
Zr(AlB3)2,11.7564,12.2397,0.4833
Y(ScV)2,49.5768,40.4748,-9.102
AcAl3PdPt,24.3857,23.5341,-0.8516
LaYSe2,38.6354,32.3572,-6.2782
AcZn2SiPt4,56.1829,43.7161,-12.4668
UTiTe4,39.8706,38.3902,-1.4804
Au3SeN,39.6,37.8881,-1.712
NaSr(MgTl2)2,30.6271,31.1819,0.5548
Al(HgPd3)2,11.9504,13.9396,1.9892
YHoN,50.0144,45.4474,-4.567
AcNiPt2,55.5709,45.3867,-10.1843
Mg3IrC,22.6921,19.7919,-2.9002
AcZnPtAu,51.6734,46.7326,-4.9408
Ti4CuRe,10.9925,15.0945,4.102
TlGaAu6,42.8513,43.8945,1.0432
Mg2IrBr,15.1165,16.7064,1.5899
Tm6Cu2Au,22.2953,25.0068,2.7115
Ac4PdPtS2,58.4401,52.9142,-5.5259
Ac3Bi2(Pd2Pt)2,49.5463,46.428,-3.1182
Ac2Sn6Pt,37.5739,35.9264,-1.6475
MgPSe2,22.1777,17.9567,-4.2211
Cs2K3P3O10,12.2366,10.3512,-1.8854
BeAs2Rh,20.9149,16.2946,-4.6203
SrScGaC2,30.6413,23.1154,-7.5259
CrCd2Si,16.2576,15.3067,-0.9509
CsBaNb,52.0173,43.6566,-8.3607
Ac2PdPtAu,50.4605,48.6234,-1.837
BeAs2Rh,21.1894,16.2946,-4.8948
AlRe2Mo,29.4073,30.4759,1.0685
BeIn2Pb,20.5455,23.5686,3.0231
PuMgTl,35.9156,38.4128,2.4972
Tb2Be4SiPt3,37.2432,29.2656,-7.9776
AcGa2Pd2Pt,37.174,32.6224,-4.5516
AcPrHgPt,36.5645,32.6423,-3.9222
ZnFeIr2,27.6759,27.001,-0.6749
Sn12Sb5Pb3,20.3551,19.7287,-0.6264
RuPtC2,51.7369,38.9949,-12.742
CoHgPd2F,12.3531,11.3282,-1.0249
CuAgAu,28.4668,28.6455,0.1787
ReAs2Ir,26.4597,28.9579,2.4983
Nd3Ga2GePd9,18.1991,18.8442,0.6451
BiSb2TeAu,47.8537,44.1445,-3.7092
Ac2TlPt,66.6431,63.2302,-3.4129
AcPrPPt,37.272,33.5288,-3.7432
ZnPt2Se,58.6166,44.3664,-14.2502
NpFeTc2,64.1505,58.4828,-5.6677
Pb2CS3,51.2557,42.2067,-9.049
Na2BiSb2,35.3847,31.9366,-3.4481
In5(PbO4)3,3.1985,4.884,1.6855
Mg3SiP,8.1535,7.8031,-0.3505
NaAc2NiO5,12.6241,13.0491,0.425
ZrPbSe2,22.1964,18.2278,-3.9685
ReAs2Ir,26.4845,28.9579,2.4734
Rb12Pb3Au5,14.7322,15.0369,0.3047
Li2AcPtO4,34.2607,30.4475,-3.8131
Ti3(PdRh)2,20.6017,19.2688,-1.3329
Re2AsIr,33.8244,37.4035,3.579
HfThZrSc,78.4079,66.0724,-12.3355
Tl12Pb3Au5,42.2709,43.4055,1.1346
YHoNiAu,59.9017,56.5856,-3.3161
LiAlW2,23.3151,25.5821,2.267
Sr3AlAs3,9.3745,6.5488,-2.8257
Y3Tm6Tl,22.8434,25.6739,2.8305
Y2SnB2Ru5,41.5872,38.1251,-3.4621
LaZr3Sb,78.6835,64.9879,-13.6957
Ti4GaCo,31.677,25.9601,-5.7169
NaPm2NiO5,3.5601,4.0818,0.5217
Ac2Tl2SiPt4,66.4076,55.0171,-11.3905
AcIn2Pd4Pt,32.5398,31.3257,-1.2141
YB2Ru,54.4574,48.4723,-5.9851
YSn2Ru,28.4289,25.3116,-3.1174
Sb2IrO,35.2142,35.0341,-0.1801
Al(VB3)2,28.9216,24.6792,-4.2424
BiPt2Pb,55.9638,46.6363,-9.3275
Zr2Ti3Zn2,34.7459,30.3607,-4.3852
AcTl2Pt,64.0172,58.7391,-5.2781
Ti2VGaN,28.7644,24.9467,-3.8176
Ca2InTc,30.9802,28.0717,-2.9084
Ti2In2Cu3,10.0186,12.0372,2.0185
LaOsN3,9.8885,5.2846,-4.6039
Ac4AsPtI2,49.2585,47.6878,-1.5707
YSnRu,31.5291,25.8343,-5.6948
Ac2Cu3Sn4Pt,58.7477,50.9455,-7.8022
AcZnSnPt,45.0321,40.5893,-4.4428
YPtI3,34.4042,29.5712,-4.833
TcSb2Ir,56.7905,50.8435,-5.9469
SnPbF4,14.3093,14.9492,0.6399
SrY(AsPt)2,39.9494,30.7365,-9.2129
GdSc5,9.1978,11.3389,2.1411
Sc3Pd5,18.3582,16.3521,-2.0061
U3RhN,40.2086,41.4301,1.2215
CrCo2Si,9.311,10.2559,0.9449
BaSc2Pb,15.6844,18.0585,2.3741
Co2NiSe,35.6241,30.4963,-5.1278
BaScPb2,27.5876,29.541,1.9534
SrCuGe2,10.0055,11.7715,1.766
CaAcPt10,79.7402,58.6187,-21.1216
ScBeTl2,29.7366,29.598,-0.1385
AcHgPtPb,51.0567,46.8312,-4.2254
TcBPCS,45.3349,39.5475,-5.7874
Ba2ScPb,14.4266,16.1675,1.7409
ScSb3Pb,40.7295,35.1823,-5.5472
Hf2Ti3Tl2,58.0534,47.2565,-10.7969
TcAgN2F,27.7829,22.6944,-5.0886
KMgIr,19.931,20.9755,1.0445
ScBeTl2,29.5736,29.598,0.0244
Cs(SrZn)2,13.364,14.1904,0.8264
TaP,0.0,19.6623,19.6623
Ac6Ru(PtI)2,58.5464,53.5393,-5.0071
NpUIr,60.5231,63.9541,3.4311
Ca(B3W)2,9.1875,12.3698,3.1823
Li2Pb3(IO2)2,42.2831,38.0802,-4.2029
VAuN2F,39.2883,33.1439,-6.1444
Ac6La2Pm3,51.5283,49.8665,-1.6618
Cd2PdPt2,43.0389,35.1395,-7.8994
Y2B2Ru,75.4284,65.6694,-9.759
MgSbIr2,33.3722,34.9642,1.592
OsRuC3,51.891,40.0741,-11.8169
RbBa3Se,10.5974,8.0251,-2.5723
Ac4CoPtI2,49.0474,47.5324,-1.5149
Y2SbAs2,11.4213,13.0683,1.647
MgCuIr2,28.946,28.4808,-0.4653
Sm5Cu3,18.0471,20.4719,2.4249
AcInPtPb,56.1876,52.0267,-4.1608
Y2HoNi,64.1776,57.9788,-6.1988
MgIr4Se,37.8617,38.3421,0.4804
CoSnHg2Rh,16.3706,13.799,-2.5717
Re2Ni,33.981,29.1068,-4.8743
La2(Pm2Tm)3,31.4437,30.0908,-1.3529
Ga2SiRu2,11.3827,10.1547,-1.2281
In2FeHgSb,24.9346,21.6864,-3.2482
Ac5Dy3,50.6523,52.8894,2.2371
Li2PIr,18.0995,17.5578,-0.5417
Li2AcPt4,59.8944,46.5366,-13.3578
NiSb3Rh,42.4493,32.8471,-9.6022
Dy(HoB3)2,9.1912,11.9142,2.7229
LiAc2GaPt6,66.7609,52.1618,-14.5991
PmYTcPd,71.8762,63.0056,-8.8706
Ti4FeBi,6.5189,9.7819,3.263
TaVHgN2,44.6618,35.1118,-9.55
CrFe2Si,18.0158,12.9541,-5.0616
Nd2Sm6Y3Pu,26.131,27.5037,1.3727
YBeRu2,9.671,9.7783,0.1073
YBeRu2,16.413,9.7783,-6.6347
Y2Al3Zn4Ag,21.6711,17.7826,-3.8884
V2Re3Mo2,62.0284,53.6488,-8.3796
PRuSeBr2,23.1178,19.0534,-4.0644
BaEuMgSi,14.4411,12.9637,-1.4774
V2Tc2Mo3,69.6887,58.8318,-10.8569
Sc5Hg,4.0618,6.0645,2.0026
YBeRu2,16.5194,9.7783,-6.7411
Ti2PCl2,4.1218,6.6151,2.4932
Rb(SrSe)2,24.6142,20.2893,-4.3249
Sr2MnPb,41.2467,39.2321,-2.0146
Y2Al4AgPd3,23.8291,20.2764,-3.5527
TiFeRh,4.4998,3.8893,-0.6105
V2Ni2Ru3,45.3966,39.4753,-5.9213
Ti4NbFe,28.2627,25.0789,-3.1838
KPuTe2,34.6376,35.3051,0.6675
ZnFePb,24.7666,22.8921,-1.8744
Dy(PaB3)2,17.8685,20.399,2.5305
ScBe2Tl,19.5215,17.9416,-1.58
V2Pd3Rh2,58.4674,46.9257,-11.5417
Zn2TeOs,25.0352,26.1127,1.0775
Er2Tl2P,32.1084,34.3043,2.1959
YBe2Ru,11.8315,10.4692,-1.3623
V2Ru2Rh3,74.9194,57.5166,-17.4028
VAgPb,66.388,56.1754,-10.2126
V2Zn2Ir3,61.9243,51.3047,-10.6196
Y2ClF,43.7166,41.2103,-2.5063
BaV2Sb,70.5219,54.5824,-15.9396
Ta2V2Re3,77.7083,67.892,-9.8163
LiLaY2C,35.439,27.786,-7.653
AcSn(BiPt)2,61.9805,53.9828,-7.9977
Pu(HfB3)2,39.6547,32.3512,-7.3035
Ac(SnPt)4,49.9046,40.0932,-9.8114
CrInSi,15.3547,14.3988,-0.956
V3(CrRe)2,69.1047,57.9845,-11.1203
ZnGa2GeO6,15.8598,13.2176,-2.6422
CrSiHg2,6.5901,5.3198,-1.2703
NaAs2PtSe,48.4096,39.4821,-8.9275
La3(Tb3Nd)2,33.2375,30.385,-2.8525
K2NaCrCl6,10.704,10.1884,-0.5156
TlCu2Si,21.2174,20.217,-1.0003
NaSr2Br2,16.9858,14.2512,-2.7346
Li5(PbCl4)3,2.7454,4.87,2.1245
NaV2Sb,77.6221,61.2594,-16.3627
MnSbRh2,60.2417,47.1624,-13.0793
Ca2HfTcNi,53.9163,40.1441,-13.7722
Nb2V3W2,106.6145,87.6677,-18.9468
BeZnMoO4,13.4787,10.8332,-2.6455
PbSeS2,41.4014,32.683,-8.7184
La2ZnPtO6,36.4917,30.7235,-5.7681
AcEu2I,35.5082,36.9678,1.4595
NiBr3,10.976,11.7851,0.8091
Ac12SnPt6,69.312,61.4659,-7.8461
BaNaV,48.2511,38.312,-9.9391
ZnTcHg,33.7867,28.9589,-4.8278
CuRe2P,42.8524,38.8816,-3.9708
LiRe2Rh,25.5059,28.6194,3.1136
CdRuPb4,37.0422,38.9787,1.9365
Ho2ErB6,9.3915,11.6636,2.2721
Hf(TaB3)2,23.8049,22.1469,-1.658
SrTaHg2,18.1722,14.7466,-3.4255
Co6Ge2C,13.8185,13.7797,-0.0388
Pm3Y7Th2,25.4445,28.3241,2.8797
NaSr3As,19.4386,15.9264,-3.5123
NaHf2NbAg,98.3358,72.4685,-25.8672
Ca2BeSb,22.5141,15.443,-7.0711
YEr7P8,17.3577,18.2478,0.89
Ho(ErB3)2,9.4994,12.1882,2.6888
Cs4Br2Cl,16.3239,16.6794,0.3555
YC,15.9358,10.3083,-5.6275
ScIr,0.0,8.2337,8.2337
CrIn2Si,16.5576,15.7241,-0.8335
NaAlRu3,17.3151,17.9644,0.6493
Si5(Te4Pb)3,25.4493,23.0697,-2.3796
ReSiTe,32.6774,31.7594,-0.918
Ho(B3W)2,11.7986,14.9157,3.1171
Y2Pb3,31.4572,34.7111,3.2539
Sb3MoPb,42.1458,37.8198,-4.3259
Te3MoPb,41.9413,38.3822,-3.559
Sc3Au2,15.5345,19.0419,3.5074
CuRuO2,6.2984,6.1885,-0.11
SrAc3Pb,40.737,44.5554,3.8184
LiAc2Sb4Pt3,56.8487,46.8948,-9.954
CdSiIr,25.9019,26.729,0.8271
ZnMoPb,25.7161,28.3632,2.6471
ZnInSnO4,40.0859,32.4822,-7.6037
La(ThB3)2,20.4934,20.9062,0.4128
Si2Ni2Pd,5.9178,6.3979,0.4801
BiTe2PbI,43.1026,42.1397,-0.9629
SnBi2N,37.799,36.6165,-1.1825
NaSn2Pt5,63.8811,47.7725,-16.1086
Y3RuPb,4.8903,8.3989,3.5086
Hf2Ti6Al,36.6753,28.0271,-8.6482
ZnCO2,31.2831,21.7017,-9.5814
Cd2SiIr,24.4461,25.299,0.8529
Cd2Si2Ir,17.9398,17.4414,-0.4984
CrRe2Si,26.1435,27.9015,1.758
LiSbOs2,26.894,33.3558,6.4618
TbPr2Pb,12.9577,16.5708,3.6131
Ti4GeSb,13.5314,14.054,0.5226
Sr2Ga2SiO7,11.1093,9.3908,-1.7185
ZnSnO2,54.4371,43.5042,-10.9329
CeYSnPb,38.3341,34.8728,-3.4614
Ce4Y3HoS8,36.9697,29.7848,-7.1849
MnIn(H3Ir)2,15.9081,15.2238,-0.6843
FeOs3,31.1729,30.4518,-0.7211
Os3Rh,44.1936,44.1649,-0.0287
Sr3SnAu,12.0331,14.9768,2.9437
YTi2Bi,37.0775,32.9504,-4.127
RbZnRe2,29.9607,24.1212,-5.8394
Rb2ZnRe,23.4698,15.6316,-7.8382
ScI4,15.2186,17.6245,2.4058
LiAc3Pt2O9,27.6534,24.6933,-2.9601
RbZnRe3,38.9357,32.9787,-5.957
KSc,9.5189,9.6059,0.087
La3Sm3Tm2,36.4495,31.9685,-4.4809
RbSr2Fe,17.256,14.9926,-2.2634
CrSiIr2,28.5998,28.6523,0.0525
RbLiY2,10.3324,10.7805,0.448
Dy6Y3Ho2Tl,26.0943,27.4672,1.3729
TlCu2Si,21.2564,20.217,-1.0393
Tm4Sb2N,29.4417,29.9558,0.5141
Rb2PPd2,10.0745,8.8033,-1.2712
KZr3V,89.2646,72.376,-16.8887
Ti4MnFe,21.743,21.3652,-0.3778
Rb2In2P,12.0888,11.1272,-0.9616
TiPdSe4,35.3183,29.3664,-5.9519
PmNpN2,23.1826,27.2581,4.0755
LaSm4Tm3,25.8608,26.3692,0.5084
Ac2PuAl6,24.0722,26.0351,1.9628
CaY2HoS4,36.5062,27.9124,-8.5938
Be2NiCl6,-0.0,0.0549,0.0549
Nd3ErBi4,39.3159,40.6704,1.3546
LaSm6Tm,29.0753,28.567,-0.5083
AgMoBr3,16.4098,15.488,-0.9218
YSc(BC)6,56.064,42.4755,-13.5885
SrCa2(HN)2,5.6628,4.5167,-1.1461