Formula,E_hull_DFT (eV/atom),E_hull_ML (eV/atom),Delta (ML - DFT)
Na3Sm(USe3)2,42.4479,36.8576,-5.5903
La2Ta4Mo,39.1313,37.5738,-1.5575
CuTeOs2Pb,39.1879,39.6529,0.465
Cr5Fe3,22.3837,17.5151,-4.8686
Mn(Fe3Sb)2,35.463,29.0783,-6.3847
Cu2TeOs,24.898,25.9342,1.0362
ErPu2(MoN2)3,17.7839,19.8091,2.0252
NaNiSbSe2,39.0104,28.7462,-10.2643
Ba2TlPd5Au2,18.7812,20.6677,1.8865
CuTe2Os,34.0268,33.5798,-0.447
ReNi2Cl,34.2956,23.7588,-10.5368
NiSbAs,32.944,15.1163,-17.8277
CuMo3P,29.0075,20.9321,-8.0753
BaTh3(PN3)4,23.0214,20.5946,-2.4268
Ag2ClO2,13.9798,11.7681,-2.2117
GdPtRh2,53.6146,41.2939,-12.3207
NdTlPd2,22.2016,24.9293,2.7277
ErCr2MoN4,16.1879,15.117,-1.071
NaFeSn2,20.9843,19.8933,-1.091
Sr2Tl2Ag3,31.5605,29.1877,-2.3728
NdTlPd3,20.281,23.1758,2.8948
Hf2ScCd,78.2145,58.1548,-20.0597
KTbMn,39.1199,33.712,-5.4079
AuC2I,46.4207,37.2858,-9.1349
CeNiPb,31.1088,31.8624,0.7536
TaPtBr2,39.6136,33.0962,-6.5174
Sr2Tl3Au2,38.677,39.6915,1.0145
KRb(H3Au)2,7.8142,8.6356,0.8214
Li2Tm2ThBi2,33.6722,35.9877,2.3155
DyYN,28.3336,27.4201,-0.9136
CrReAs2,19.4971,19.5386,0.0415
Hf2NpF11,21.5783,17.9533,-3.6251
Ba2AlIr2,20.1414,20.4786,0.3372
CaCu2F11,3.8799,4.5299,0.6501
Ca4YAl,16.6932,14.0536,-2.6396
EuScI2,19.1274,20.34,1.2125
Pr(Re2Ge)2,40.0396,35.6274,-4.4122
CePr2F11,0.0,0.9247,0.9247
CePu2F11,8.155,10.3049,2.1499
CeHg2F11,3.2966,4.4975,1.2008
BeSbTe2W,37.018,33.3417,-3.6763
Zn2SiCl,9.3623,8.394,-0.9682
TiHgP2Os,11.1643,12.6021,1.4378
Sb3Mo,38.0488,33.9891,-4.0598
TlTeBrN2,22.9203,22.6901,-0.2303
YTl2W,48.977,41.5313,-7.4457
Li2MgCo,6.6815,4.9914,-1.6901
Zr2RuW,72.5716,62.7122,-9.8593
Yb2Sn2Ru2C,30.0498,30.0243,-0.0255
Zr2GeF11,14.7599,14.9024,0.1425
Zr2SiS,65.9886,54.1611,-11.8276
SmTmHg4,8.8818,10.2536,1.3718
AcHf2F11,21.3354,17.823,-3.5124
CrRhI,21.6736,18.0747,-3.5988
Tb4ErPu,34.6956,37.1128,2.4172
SrCrCl4,18.5413,17.1315,-1.4098
Cd(CuO)2,1.9518,5.2851,3.3333
ReNi2Cl,33.717,23.7588,-9.9581
Sr2Tl2Hg3,17.8992,18.5739,0.6747
Zr3(TiP)4,31.0863,26.2239,-4.8625
LaReTe2N,85.444,74.8847,-10.5593
Tl3AgPt,54.8194,48.5248,-6.2946
Y2CrSi,48.4216,39.2934,-9.1283
NiPb3C,46.13,42.2754,-3.8546
LiCe2Ge3Pd4,17.1569,16.9615,-0.1954
Ta2SbOs,40.0888,42.7754,2.6866
Gd6FeTe2,28.2771,28.934,0.6569
CaYO2,43.8947,39.8995,-3.9952
CeAgSb,28.263,26.5587,-1.7044
TeAs2Rh,27.8016,26.243,-1.5585
Cu2Si4Ni,12.425,9.5889,-2.8361
TeAsRh,16.6228,16.9593,0.3365
TaCo2Br,42.4633,30.8761,-11.5872
TaCo2Br,42.9076,30.8761,-12.0315
TeAsRh2,37.5017,30.636,-6.8657
Si4NiRh2,22.8902,16.4674,-6.4228
TaSb2Os,42.2562,41.4974,-0.7588
KBa2Cu,5.3123,5.3987,0.0863
SrMg2TiH6,4.7952,5.1038,0.3086
MnCr3Te4,36.7502,32.0137,-4.7365
Te2PW,90.0873,77.8147,-12.2725
TaSbOs2,41.7677,43.7975,2.0299
Er3Cr4MoN8,16.8608,16.7997,-0.0612
Na2AgBr4,17.2134,15.2842,-1.9292
KNa2SiPt,32.9878,24.498,-8.4898
YTlW,48.6795,38.6549,-10.0246
Ac(AlPd2)4,16.0357,17.8262,1.7905
TaSbOs2,41.5688,43.7975,2.2288
Cd3Fe,12.4069,14.2157,1.8087
YCr2Si,32.3641,25.6989,-6.6652
Ta2SbOs,40.0488,42.7754,2.7266
SbPtSe2,57.7579,44.662,-13.0959
Ca2EuZr,34.6345,31.9986,-2.6359
Tm4AgPd5,23.4588,25.1589,1.7002
TeAs2Rh,27.8916,26.243,-1.6485
Li2Ca2ErIn2,12.5554,12.9734,0.418
YAl2,21.6294,17.7339,-3.8955
TaCo2Br,42.5215,30.8761,-11.6454
TbLu2Ni,24.7611,28.0347,3.2736
KMg2Cu,11.2639,8.2897,-2.9742
BaFeRu2,26.9081,20.3718,-6.5362
InRu,1.229,18.8408,17.6117
LiAl4Rh,12.0764,10.3597,-1.7167
ZrGaTe4,41.0735,38.6936,-2.3799
TlAsRh,37.2698,32.8822,-4.3876
LiAl4Re,10.6902,12.0906,1.4004
Co2TcBr,35.877,30.11,-5.7671
NdYTh,34.8822,38.2922,3.41
CaTbSn,17.0026,19.4038,2.4012
FeSb2TeW,43.2543,37.6749,-5.5795
LiMn,39.9421,32.815,-7.1271
CaTiFe2,14.6178,11.5704,-3.0474
TlFeTe2,33.7958,33.2402,-0.5556
Ni2RuCl,8.6598,10.8854,2.2255
CaY5Al4,34.5734,26.4478,-8.1256
Hf2MoBr,78.9741,53.3807,-25.5934
Y2O3,6.2283,6.9661,0.7377
Na(Ga4Ag)2,14.1933,13.1804,-1.0129
CsSr2YPb,25.5682,24.8426,-0.7256
Na2CaAlO4,16.5806,15.3901,-1.1905
TeRhI2,31.1722,28.9,-2.2723
La2ZrN,43.7725,35.4931,-8.2794
Tm(SnHg)2,11.1663,12.8584,1.6921
Zn2MoIr,24.2162,21.6029,-2.6132
Os3Cl,27.4053,30.0236,2.6183
LuHfThSc,62.2398,54.2769,-7.9629
ZrCo2Br,36.8685,30.8378,-6.0307
Ac2Pm(SbRh2)3,48.0749,39.6795,-8.3954
SrAc(CuSb)2,29.4791,28.6517,-0.8274
LaNdYTh,39.2645,38.3844,-0.8801
TmSnHg2,12.4832,14.1274,1.6442
TlIr2Rh,47.0182,46.0072,-1.011
MnTl2Tc,69.2409,62.0197,-7.2212
DyLuGa2,18.8791,21.4353,2.5563
La3EuFe,36.7186,28.2997,-8.4188
Y2Cr,18.9421,14.0112,-4.9309
Pu2HfAl6,33.6631,30.5642,-3.0989
Co2SiW,17.3563,18.1403,0.784
Pr6In2Sn,-0.0,1.0009,1.0009
Ac2MnHPt6,75.8667,59.0213,-16.8454
Ti7Zn2Tc3,27.392,25.2848,-2.1072
Li2MgRu,5.4592,6.7389,1.2797
Tc3RuS,72.2284,58.5841,-13.6442
Tm2PaCu,33.8348,36.9382,3.1033
AcFe2Pt3,55.6303,43.7179,-11.9124
Pm2MnF11,9.6531,10.3868,0.7337
IrRhAu,47.6225,45.2257,-2.3968
Na4InBi3Te8,38.1626,35.8172,-2.3454
YCr,0.0,10.8194,10.8194
UCdHg,29.3624,31.5521,2.1897
TcAg2Rh,51.6051,41.4116,-10.1935
LaU2F11,9.8144,11.1087,1.2943
Te2RhI,39.7357,35.0243,-4.7114
Ca5Y3,15.9448,11.9569,-3.9879
CaY,19.5168,15.3128,-4.2039
BiMo3Rh,31.3427,30.0213,-1.3214
Bi2MoF11,9.4271,11.2284,1.8013
TaRh2Se,45.5866,38.2208,-7.3658
Ta2MnCu,45.7988,43.5472,-2.2516
Dy2MoF11,3.4702,5.6028,2.1326
Si2SbAs,32.0352,25.1841,-6.8512
PmMo2F11,3.4143,5.1183,1.704
TmMo2F11,3.8466,5.5409,1.6943
NdMo2F11,3.4103,5.1127,1.7023
Ta2V3Mo7,55.3623,47.214,-8.1483
LaMo2F11,5.284,5.8533,0.5693
Te5Br,37.4018,34.8384,-2.5634
SiSbAs2,30.447,25.7575,-4.6895
Y3Cr,26.5001,22.1984,-4.3017
Rb3Ti3Ir2,15.0369,15.8321,0.7953
ReTe2N,89.904,81.7128,-8.1912
Dy2SiRu3,25.6792,22.9152,-2.7639
Sm2Er(MoN2)3,9.9798,12.5,2.5202
Li2SbSe,22.886,19.5981,-3.2878
ScCd4Sn,22.4006,20.7409,-1.6597
CuAgTe,23.3335,23.2138,-0.1197
NdBi2F11,9.242,11.0325,1.7905
Nd2SmF11,3.318,5.5016,2.1836
Ca2YCr,29.0425,24.2306,-4.8119
CeSbI,30.1966,29.398,-0.7986
TaSbSe,42.9744,40.2543,-2.7201
RbReTe,11.8316,17.2665,5.4349
Ba3PPb,18.9837,16.5365,-2.4472
Nd3Ga(Ge3Pt)2,26.0234,22.5006,-3.5228
NbSbPd,68.8286,57.1405,-11.688
PmNd2F11,3.302,5.4946,2.1926
Nd2ThF11,5.3183,7.8478,2.5294
YVI2,47.188,39.9979,-7.1901
AcNd2F11,6.1465,8.406,2.2595
Ac2NdF11,8.9816,11.0001,2.0185
NbSbPd,61.8689,57.1405,-4.7283
AgW2Au,72.6045,61.8937,-10.7108
Pm2HoF11,3.5335,5.6726,2.1391
Ca2YCr,29.0985,24.2306,-4.8679
Sr3NbO6,9.0468,9.3138,0.267
Er4NbMo3N8,18.3534,19.2311,0.8777
Sc8CdSn2,14.7972,13.0633,-1.7339
BaPPb,23.4357,23.5051,0.0694
Ag2WAu,70.7431,56.797,-13.9461
AcPm2F11,6.1408,8.3575,2.2166
Pr2BiF11,2.0064,4.2212,2.2148
PmU2F11,7.9459,10.3827,2.4368
TaCu2P,19.4477,18.6394,-0.8083
TlAgPtW2,78.0716,62.496,-15.5755
Pu2PdF11,9.4843,11.9056,2.4213
Na(CuSn)2,48.7151,41.4533,-7.2619
Ni2BRu,7.6982,10.991,3.2928
YbMg2Cu,14.076,12.5742,-1.5018
AgAsBr2,16.352,14.9694,-1.3826
Na2SnBi3,35.7649,35.4377,-0.3271
Na2Sn2Br,17.4455,17.2588,-0.1867
PrNd2F11,1.2079,3.4144,2.2065
HgMoPt2,48.7984,37.3,-11.4984
AgAsBr2,16.4012,14.9694,-1.4318
IrPb3C,53.8315,50.3046,-3.5269
AlPtI3,34.209,27.639,-6.57
LiScSi,24.847,21.5359,-3.3111
ScMn,23.8881,17.3972,-6.491
ZrAgBr2,38.1454,32.4653,-5.6801
Co2SiSe,18.9236,16.2121,-2.7115
AcRu2F11,8.4513,8.0923,-0.359
Na2AgTe,28.1866,24.1399,-4.0467
PrTm2Bi,27.4486,29.5874,2.1388
Sc3Sb,10.0221,9.8073,-0.2147
Zr2AgBr,59.7951,50.7744,-9.0206
Fe2NiI,24.8607,19.7921,-5.0686
Ca2(Pr2Sm)3,6.8095,8.2221,1.4126
InPbBr3,26.575,25.6938,-0.8813
Hf4TcPd,113.8523,83.9027,-29.9496
ZrAg2Br,43.2542,36.1818,-7.0724
Tm2Si2Ir2C,33.2767,31.1376,-2.139
Sm2Dy2Th3,43.3582,46.7749,3.4168
Ac3In3Pt2,53.2337,48.0492,-5.1845
Na2In4Sn,21.3339,20.9654,-0.3684
KRb2NbI6,28.5602,25.7087,-2.8516
YO2,3.1298,3.8648,0.7351
ErTm2(MoN2)3,10.7601,13.0843,2.3241
BIr3I,33.7346,34.7563,1.0216
Ca2ScMo,17.1926,16.6577,-0.5348
InGePt3,59.8009,44.591,-15.2099
SbPtSe2,57.5973,44.662,-12.9353
GdGeOs,26.4219,29.9475,3.5255
YAl5,14.7368,12.8161,-1.9207
Sb2As2Cl,20.224,17.1471,-3.0769
CaSc2Mo,20.1885,17.5683,-2.6202
Nd2AgBr,22.4643,22.8206,0.3563
BaPrFe2O5,16.1589,14.9664,-1.1925
LiHfSe3,56.9672,41.943,-15.0242
TlAgPt4,73.3945,55.6743,-17.7202
CsPd2N,19.9798,19.3825,-0.5973
YV3I,86.6685,67.3331,-19.3353
YSc4Os,13.7959,15.7512,1.9554
Li2MnAg,33.0476,26.8555,-6.1921
AcSc2F11,4.5995,5.4613,0.8617
Rb3BaCa,2.6058,2.2607,-0.3451
Cd2MoPb,26.9926,28.6456,1.653
PmSn2F11,6.4971,6.9221,0.4249
Na(In2Sn)2,20.7763,20.8387,0.0624
NaAcH6Pt,19.6776,16.6141,-3.0635
IrOs2Br,35.7097,39.2354,3.5257
CrOsPb,35.2542,36.713,1.4588
Na(In3Sn)2,20.6667,20.7579,0.0912
Na2AcH8Pt,16.674,14.8941,-1.78
CePd4Pt,24.8318,28.5795,3.7477
MnSN2,33.5643,27.2582,-6.3061
LiCrOs2,23.7257,26.6697,2.944
Li4TmP2,10.9421,10.5234,-0.4187
Ac2HPt,54.2341,49.686,-4.548
LiCr2Os,15.3957,16.8866,1.4909
AcHPt,50.8008,44.1676,-6.6332
Co2WI2,16.6295,17.5342,0.9046
Tb4InGaAg2,24.236,24.5457,0.3097
In2Ga2Ag,14.7963,14.6028,-0.1935
Na2Ac(H4Pt)3,21.007,17.4932,-3.5138
TbY5Hg4,27.5564,23.5533,-4.0031
Y2Al,24.3391,13.7508,-10.5883
YAlSi,31.0639,26.233,-4.8309
Co2ReRu,17.1882,21.183,3.9948
NiPt,18.1228,15.7995,-2.3233
Pr2Nd3Pt2,34.0943,27.9121,-6.1822
Y3HoSb2C,35.9247,31.3808,-4.5439
Tl(Ag3Sb)2,36.5874,30.5612,-6.0262
Dy3YHo3Te8,33.1748,32.8616,-0.3131
Nb2PN,78.4362,61.4164,-17.0199
AlInMo,20.2092,18.0068,-2.2023
Ti2TcI,25.9337,24.6499,-1.2838
Li2TeRu,14.6447,15.078,0.4333
AcHPt,45.3825,44.1676,-1.215
In2Ga5Ag4,18.8473,16.8864,-1.9609
Zn2CoPd2,12.7127,11.4869,-1.2258
ZrSbRu2,36.5894,36.0465,-0.543
Sm2Th3Os2,53.1694,53.3547,0.1853
Ca2YAl,21.9764,18.1632,-3.8132
Er3Cr(MoN3)2,12.8828,13.9863,1.1035
Sr3LiPb,11.1648,12.8493,1.6845
K3Ca5I12,6.3881,7.7897,1.4016
InGaAg,17.0405,16.7916,-0.249
Sm3Ho7Tm2,28.169,29.6901,1.5211
RbLiWN3,5.1103,7.7002,2.5899
CoHgAsBr2,13.589,11.3901,-2.1989
BiWI3,33.2133,33.661,0.4477
RbInCoHg2,5.4491,6.1579,0.7088
YCrSi2,33.4765,25.3875,-8.089
Ac(H2Pt)2,30.0104,23.7386,-6.2718
Tb2HoF11,3.7459,5.878,2.1321
Cr2MoBr,25.6602,23.3143,-2.3459
Tb2ThF11,5.5301,7.9258,2.3957
Tb2TmF11,3.9099,6.0424,2.1325
AgPt2Br,56.5877,42.1676,-14.4201
OsWO2,86.4668,69.333,-17.1338
NaSr3(PmTe3)2,29.0843,28.3019,-0.7824
AlIn2Mo,19.7684,18.2704,-1.4981
ReSi2Te,28.4141,27.8707,-0.5434
Hf2GeP,67.3297,49.1928,-18.1369
ReSi2Te,28.8243,27.8707,-0.9536
BaTe2P,25.0221,24.4753,-0.5468
Na2SnBi,28.5424,28.5587,0.0163
Te2OsC,42.4597,38.4435,-4.0162
LaNdNiAg,28.2707,25.2698,-3.0009
YCr2Si,32.3196,25.6989,-6.6207
AlTlCu2,19.1375,18.5044,-0.6331
YAl,8.0553,4.449,-3.6063
La2ReRh,48.3044,39.3362,-8.9682
Y2AlSi,41.2857,33.5834,-7.7023
CaYAlSi2,31.3207,26.1633,-5.1574
FeTcAs,61.0203,52.3022,-8.7181
YTl2W,48.9887,41.5313,-7.4574
Y3Al3Si,37.6937,29.3501,-8.3436
Mn2PtSN,69.413,55.0028,-14.4101
Zn3FeSe4,28.5267,22.482,-6.0447
TbNd2Ag,26.7997,27.5387,0.739
Ce3PdPt2,44.627,37.1697,-7.4573
RbCoHg2,2.4509,2.9735,0.5227
Ca5Y,9.9049,9.0887,-0.8163
Sr(AgPb)2,33.0495,31.8306,-1.2188
Mg2PW2,56.3543,50.8783,-5.476
MoBr3F,12.8596,12.0928,-0.7669
UNi7,13.891,16.0611,2.1701
BaSrC2,35.0794,25.4464,-9.6331
Sr5C,21.6296,19.9441,-1.6855
YCr,46.8992,10.8194,-36.0797
KCa3Rh,12.4091,10.6676,-1.7415
ZrSc7,16.7675,16.2533,-0.5141
ScPd3,11.6213,18.0187,6.3974
Cs2NaSb2,30.2955,27.3158,-2.9796
UInPd5,25.5511,27.3639,1.8128
PrThCu4,15.0726,16.7846,1.712
Na2EuTl,31.9949,30.3658,-1.6291
KSeBr,23.5467,21.0865,-2.4603
CsOsNOF5,19.1604,19.4889,0.3284
Ac2Sm3Os2,50.0161,48.0994,-1.9167
Tl2InAs,32.9199,34.1227,1.2028
NaEuCdSn,22.8497,23.1467,0.297
ZrGa3Te,33.6774,30.4622,-3.2152
NaIn2Sn,21.2644,18.7123,-2.5521
Na(CaSn)2,11.713,13.357,1.644
TbY2Pb,26.7285,29.3895,2.661
Zr2GaTe4,52.641,46.6321,-6.0089
Y3HoSn2C,41.4605,32.2566,-9.2039
NaSbSeI2,33.26,28.7232,-4.5368
Al2InMo,15.2133,14.1107,-1.1026
YHo2InC,37.0329,32.9993,-4.0336
Si2OsRh,30.2931,25.457,-4.8361
KTlPb,35.7946,33.7831,-2.0115
Si2OsRh,29.7212,25.457,-4.2641
Sr6Pd2N,13.0266,13.7218,0.6952
Zn2As,8.5238,9.7032,1.1794
Na2CdSn,20.4769,20.1012,-0.3757
SiOsRh,35.3443,31.8034,-3.5409
ZnCoPd2,19.0658,16.0236,-3.0422
TcPdPt4,77.9962,59.2716,-18.7246
ReTeMo,37.1525,35.1641,-1.9884
Li2MnTl,37.9559,33.6654,-4.2905
YCr3,31.386,17.415,-13.9709
NiRuSe2,24.0811,21.2545,-2.8266
NaSnMo,36.2012,26.5567,-9.6445
Na3Cd2Sn,20.4259,19.1834,-1.2424
NaSc2CdSn,21.9922,18.866,-3.1262
NaSb2TeW,39.3557,35.4617,-3.894
Er2CoGe3Pt4,44.3084,35.2359,-9.0725
TaAlHg2,10.3597,12.2187,1.859
SiOs2Rh,36.9846,34.657,-2.3276
NaSnTe2,32.1101,31.1094,-1.0007
Na6Sn2Pb,26.7276,24.4972,-2.2303
SrAs3,11.7761,9.1724,-2.6037
Na2Sn3Br8,14.7074,14.6853,-0.0221
SiTe2PtN,38.1943,32.8591,-5.3352
ZnCoPb,31.6216,25.7699,-5.8517
ZrAsCl,38.7052,34.3978,-4.3073
DyErIr2,35.09,39.2801,4.1901
Lu2CdIr,31.8428,35.4433,3.6005
NiAs2Cl,18.5261,14.0167,-4.5094
Nd2ErGe4Pt3,37.5085,31.2131,-6.2954
KNiIr,21.9008,23.4013,1.5005
CsNaEuSn,24.2995,24.2806,-0.0189
SnSb2TeP,31.6922,28.2683,-3.424
Na3U(BiTe3)2,41.4392,39.5798,-1.8595
Sr2SnSe5,5.5403,3.4078,-2.1325
Li2MnW,35.244,31.9616,-3.2824
TlCdRe2C,76.8442,63.0457,-13.7985
Y5Cr4,41.0209,30.581,-10.4399
Sr2Pm2Cd15,20.0721,19.7484,-0.3237
CaY2Cr,36.2251,27.8792,-8.3459
Na3(Cd4Sn)2,20.7218,20.0672,-0.6546
HfSb4Mo,56.1976,45.8787,-10.3189
Y4Si5,34.6128,27.8931,-6.7196
CdSbOsSe2,42.0124,36.0311,-5.9813
ThH3PdO3,17.5487,16.9753,-0.5734
Ta4AlH2N3,6.1942,10.8283,4.6341
Ba3Sn7Ir2,19.0842,20.1927,1.1085
SiOs2Rh,36.965,34.657,-2.308
NaCaSnTe2,26.7783,24.3251,-2.4532
Ce(Mn2Fe)4,66.8348,54.0117,-12.8231
NaSrGdSn,21.7428,22.3548,0.6119
Sm2Dy3Tm2,27.6581,29.8158,2.1577
Zr2FePb2,56.0269,50.9798,-5.0471
ScInCuRh,35.3643,28.6041,-6.7602
LiDyAgPt,36.5811,30.4963,-6.0848
Ba3Sn7Pt2,26.3942,22.9512,-3.4429
LiY2TlHg4,19.7283,17.6788,-2.0496
Ca3PdRh,16.4718,14.3373,-2.1346
TmH2Ir,18.0094,20.269,2.2596
Cs2Sc(CdS2)2,38.6706,33.4513,-5.2193
Y3Hg3Rh2,30.5822,23.6019,-6.9803
NaInReSn2,27.2561,26.5766,-0.6796
AlTePdI2,23.7613,21.9586,-1.8026
YAl2Si,33.6038,26.6287,-6.9752
LiYTlHg,26.2101,24.6079,-1.6022
B3RhPb,25.5063,23.7727,-1.7336
Sm2Pu3Os2,73.0197,67.2217,-5.7979
AlSiAs,31.5481,25.4793,-6.0688
Ca2YAl,21.9227,18.1632,-3.7595
NaReSn,24.6445,25.9964,1.352
Y3Al7Hg4,17.1715,13.954,-3.2175
Mo6OsRu,25.208,22.2238,-2.9842
NaTm(SnBr4)2,14.5425,15.28,0.7375
La2ReBr,32.4154,29.264,-3.1514
Li2ZrMn,50.0092,41.9529,-8.0563
Zr4W3,72.7592,67.7267,-5.0324
Li2ZrMn,50.0553,41.9529,-8.1025
Na2HfBi2,56.4873,47.006,-9.4813
MoW3F,34.2118,33.2356,-0.9762
Ce6Al2Bi,23.1338,25.0932,1.9594
Ca6Al2Pb,6.84,8.6108,1.7708
Ca6Al2Sn,3.2231,5.3602,2.1371
LaY2CdHg,35.245,28.1173,-7.1277
Ca7NbSi4O17F,19.8587,16.601,-3.2577
PtPb2Br,58.8888,50.8114,-8.0774
Cr2AgPb,26.1089,24.2769,-1.832
LaFeSN2,23.0957,17.5976,-5.498
Ba2NaHO,2.0381,3.7575,1.7194
V6CoNiH5,66.0185,50.4154,-15.6031
Al2SiAs,30.5465,24.0828,-6.4636
Li2AgMo,12.2245,11.9408,-0.2837
PrSm4Tc,25.7941,24.6192,-1.175
Zn(NiGe)2,10.3256,7.8671,-2.4584
PrTm4Tc,18.4536,21.7869,3.3333
Tb4PrTc,26.806,27.2139,0.4079
TlMoAu2,36.6101,39.2163,2.6062
Tb2ZrGa,39.7584,38.2985,-1.4599
Li2AgMo,12.3643,11.9408,-0.4235
LiSc2Pb,15.9847,17.9662,1.9815
PrTe2Ir,30.5233,31.3951,0.8718
YHgP2S,30.9144,26.129,-4.7854
Si2HgAs,20.588,15.5456,-5.0423
Ba2NbSb,43.164,36.1667,-6.9973
Th4TcPt,65.8304,61.1318,-4.6987
Si2HgAs,20.5725,15.5456,-5.0269
Ca3YHg4,7.5371,6.8997,-0.6374
Y2Cr,39.9512,14.0112,-25.94
Er2Si4GePt3,38.7112,29.1734,-9.5378
CaPSCl2,24.8701,19.3055,-5.5646
ErTm(MoN2)2,10.7156,12.8966,2.181
CaMn2Zn,54.8213,43.9866,-10.8347
NaY2GaHg,26.9868,22.4265,-4.5604
CuPO,9.3863,6.6225,-2.7638
AcHgTe,34.7095,35.215,0.5056
AcH3Pt,25.7996,22.4796,-3.32
BiSBrN2,26.7468,23.9559,-2.7909
Cd2Ni,15.1654,15.8299,0.6645
DyY3Hg4,21.8285,18.735,-3.0935
CaMn2Zn,50.1535,43.9866,-6.1669
NaAlTlSn,24.8449,25.0837,0.2388
ErTa4Mo3N8,13.5935,16.5916,2.9981
Al2Fe6Co,8.1112,8.3386,0.2274
TaH2I3,13.3526,15.8594,2.5068
SrTcW,61.105,47.1565,-13.9484
TbSm(YHg)2,20.8955,19.2525,-1.643
CaZn,0.0,0.7128,0.7128
CeZr,54.4568,50.9697,-3.4872
Sr2TlPb,32.0962,33.807,1.7108
AlCuN,11.5478,8.7794,-2.7684
ScBi,12.474,21.112,8.638
SrTl2Br,30.7057,31.1712,0.4655
La2Ta2Sb,38.5454,33.7243,-4.8212
Y2Cr,39.8862,14.0112,-25.875
Fe2(Co2Ni)3,34.5089,26.0962,-8.4127
Ba2Sr2Cd3,14.7137,12.8003,-1.9134
Th3Sn3H2,26.5578,31.2124,4.6546
Sm(Er2Tm3)2,30.1374,32.1073,1.9699
CaZn2,5.0593,6.1432,1.0839
Er5Pd2Pb,23.4704,26.7549,3.2845
Th2Bi3Pb,57.6248,59.5166,1.8919
YCr,52.9941,10.8194,-42.1747
BC,29.5013,43.6636,14.1623
LaY(MgHg2)2,13.0294,10.7313,-2.2981
MnAs,41.1175,36.4059,-4.7116
NiPt,24.0777,15.7995,-8.2782
AcHPt2,60.285,48.6557,-11.6293
CrCo2HgN,48.0458,42.0121,-6.0337
Sr2Nd2In3,19.0612,20.748,1.6867
SiAgBr,19.9013,16.2078,-3.6935
TiReN2,64.562,60.7631,-3.7988
AlSi2Br,21.3189,17.112,-4.207
SiAgBr2,17.5391,14.2105,-3.3286
CoSb2TeCl,29.6165,25.5653,-4.0512
Li2NbRu,40.1644,34.556,-5.6084
Nd4P3,14.3236,18.4953,4.1718
LaIr2Rh,46.7161,41.5943,-5.1219
AlAgBr2,14.1903,12.8304,-1.3599
TaPt2I,53.755,45.0123,-8.7427
Al2SiBr,18.3438,16.1728,-2.171
LaHgMo4,19.1945,19.9635,0.7691
ScIr,16.6555,8.2337,-8.4218
SiAgBr2,17.6636,14.2105,-3.4531
SiAgBr2,17.8996,14.2105,-3.6891
NaAlBr2,12.0919,12.3407,0.2487
CdMoBr2,14.4417,16.5522,2.1105
ZnO2,22.1303,16.851,-5.2793
Te2IrI,38.3577,37.4271,-0.9306
Na(AgBr2)2,18.9344,16.2791,-2.6553
Al2AgBr,12.4718,11.6551,-0.8167
YMg2HgO,18.1023,15.9467,-2.1556
Na2NbBiO5,19.6244,17.4283,-2.1962
ZnAs3O,20.3828,16.2664,-4.1165
Co2SCl,18.8125,16.0427,-2.7698
Tl2SbIr,48.0626,47.5993,-0.4633
NaLiRe2,21.5236,24.2571,2.7335
Al2AgBr,12.378,11.6551,-0.7229
NaScTi,14.2679,17.8309,3.563
Rb2AlP2,17.6594,11.4438,-6.2156
BiSbTe2C,49.7279,42.7578,-6.9702
CeLuZrSc,40.6246,39.2054,-1.4192
Eu2ZnPt,37.8959,32.5986,-5.2973
Sc2BiAu,22.2392,26.9526,4.7134
DyEr2Cd,26.178,28.8979,2.7199
CaY,0.0,15.3128,15.3128
Mn2AsO,76.0712,64.9125,-11.1587
GdZn2Sb,22.1565,22.1326,-0.0239
SnSbPb2,42.7847,42.2321,-0.5526
VCo,26.8924,27.8358,0.9434
TaInCo2,38.3412,30.7865,-7.5547
CeGdSb,32.6145,32.3622,-0.2523
Ce6Al2Sb,21.9931,23.421,1.4279
CaWN3,17.8765,18.6272,0.7506
ZrScCr,48.6765,40.7801,-7.8964
Nd2Th3Tc2,61.8955,59.3776,-2.5179
MnZn2As,31.3325,27.4801,-3.8524
Er5Fe2Bi,19.2491,22.6442,3.3951
LiPrSm,3.6082,7.4701,3.8618
Sr3(AcIr)2,41.345,38.5219,-2.8231
PtAuBr2,41.8245,35.2884,-6.5361
CaAs,7.2157,10.115,2.8993
Tb(Sm3Al)2,20.1482,22.3192,2.171
Er5Fe2Sb,22.846,23.4821,0.6361
AcEr5Tm2,20.8162,24.4549,3.6387
Zn2Sn2I,13.8126,15.2939,1.4813
Er5GaFe2,17.0211,18.2716,1.2506
Ti2SnPb2,29.2591,28.0219,-1.2372
LiY(MgHg2)2,7.8302,6.9635,-0.8667
Sm6TmAl2,20.5989,22.7657,2.1668
Tl(InAs)2,22.1417,23.1951,1.0533
InReAs,23.7939,27.5137,3.7199
CaMnAs,37.8351,33.2082,-4.6269
YMgHgPd,18.1324,16.2952,-1.8372
YMgReHg2,19.3201,18.2845,-1.0355
Mn2As,62.3642,50.914,-11.4501
YMg2ScHg4,7.2518,6.9278,-0.324
MgU,29.6129,36.5251,6.9122
Na2NpOsO5,10.0067,12.4803,2.4736
CsCaGa3,11.2804,12.0669,0.7865
CsCa3Ga,9.5336,10.487,0.9535
AcHPt3,66.1364,51.4948,-14.6416
Er(InPt4)3,72.148,53.3697,-18.7783
HfTcAu2,82.804,69.1319,-13.6721
Er5InAu2,27.4865,30.4561,2.9696
ZnSbMo2,21.1473,21.5995,0.4522
Nd2ZnI,19.4711,21.5355,2.0644
CaZn,7.4472,0.7128,-6.7345
Ti6Al2Pb,11.5045,12.6937,1.1892
CeScPb,27.3702,30.2169,2.8467
Na5ZrS5,44.8382,34.236,-10.6022
Tm6Al2Pb,22.1214,25.1636,3.0423
CaZrSn2Pb,40.1228,37.5468,-2.576
TcIr4Rh,52.5605,50.4145,-2.146
SrScSb,18.2263,17.458,-0.7684
Ce6Bi3N,24.5504,26.923,2.3726
Y2GaRu,17.752,16.1868,-1.5652
Cs2HgAu2,26.3175,27.1969,0.8794
Na3U(NiSe3)2,36.2478,30.5111,-5.7367
ZrCdW2,49.0152,49.2752,0.26
Cd(TcSe)2,61.0335,49.6401,-11.3934
AlCl2,3.0824,4.6255,1.5431
NaSn2Pt,34.1295,28.3999,-5.7296
Ta2ZnSe,32.3012,34.1602,1.859
SbRuPb,38.0233,37.6772,-0.3461
Na3Nd2TmTe6,32.5678,31.0841,-1.4836
SrSn3B,15.5257,16.5664,1.0407
BaZn(SnS3)2,33.8661,25.2119,-8.6542
Li4YHg2,6.7504,5.7917,-0.9587
HgPbW2,33.2405,35.8052,2.5647
K5Sr3Br12,1.9057,1.7153,-0.1904
ZrCdW2,48.7566,49.2752,0.5187
CaYMgHg,14.2949,13.124,-1.1709
RuN,16.896,17.1907,0.2948
AlCO2,15.8837,13.8699,-2.0138
RuAu2I,37.0344,36.9118,-0.1227
CdTc2Se,63.6137,53.1469,-10.4669
BaMnSi2Pb,36.655,30.5375,-6.1175
YHf2F11,19.107,15.0751,-4.0319
YMgSnHg,19.7248,17.0139,-2.7109
AcH4Pt,20.7018,18.5827,-2.1191
Ca2ScTe,17.4188,15.05,-2.3688
Cr3(SeS)2,33.2166,25.1303,-8.0863
TcOs4Rh,51.4787,49.4865,-1.9922
FeH6Ru,11.3504,8.4916,-2.8588
PIrBr,29.3282,25.619,-3.7091
NpNi2F11,6.2457,7.6613,1.4156
HfTiH,49.5257,37.1277,-12.398
Th2MnF11,13.6593,14.8058,1.1465
YMo2F11,5.9873,5.2793,-0.708
Th2ScAl6,17.5419,19.2795,1.7376
TlInAs2,22.9495,23.943,0.9935
Tc2Ru3Pt2,59.0361,49.1405,-9.8956
Li2TcPb,36.9489,33.8805,-3.0684