Formula,E_hull_DFT (eV/atom),E_hull_ML (eV/atom),Delta (ML - DFT)
GaPdBr2,15.0078,15.1833,0.1755
Pm2NpScAs4,25.7771,25.5141,-0.2631
Hg2Sb2Pd,19.467,15.9744,-3.4926
ReIr2Pt,54.1556,50.2928,-3.8629
RbCa2Al,3.8578,4.9209,1.0632
GaNiAs2Br,17.0649,15.1359,-1.9289
Rh(SeI2)2,34.1973,29.5396,-4.6576
Y2Hf2Hg,71.3898,51.4187,-19.971
Sc2GaAsBr,19.2949,14.7834,-4.5115
GaAsPbBr2,24.6976,22.222,-2.4756
Sr3Mn2(CuP2)2,26.871,23.1793,-3.6917
Tm2BeSi4Ir3,28.6189,26.7542,-1.8647
GeRuPt,31.4883,26.3949,-5.0934
NaScTi,20.4774,18.5157,-1.9617
LiHf3V,112.8715,81.8355,-31.036
GaTeI2Br,21.9957,21.7833,-0.2124
Ga2PAuBr,23.3172,21.2525,-2.0647
FeAsSe2,46.777,38.2797,-8.4973
Ir2W,41.5864,48.7007,7.1143
SrYHg2,15.6666,13.4827,-2.1839
Er3(PbO)2,26.027,27.8916,1.8647
CdTc3Ni,63.6793,54.4337,-9.2457
Ac4NiPtAu2,55.3044,53.758,-1.5464
Ga2TeCBr,27.4602,22.8053,-4.6549
Sb2TeRu,20.6143,19.1498,-1.4645
EuGaBr2,14.143,15.8833,1.7403
CdGaTeBr2,18.3737,17.9632,-0.4104
Ga2TeBr,17.4693,17.9474,0.4781
RhPb3N,42.5759,40.0335,-2.5424
Zn2FeW,18.0567,16.6917,-1.365
Sr2YHg,16.978,17.0163,0.0383
Yb3ZnIn3Si2,22.2989,22.0594,-0.2395
Ga3IrBr,17.3315,17.804,0.4726
Ca(YHg4)3,9.2801,7.3767,-1.9034
RbSnSe2N,32.4743,26.2962,-6.1781
Tl3PI,38.0006,36.9663,-1.0343
TaGaBr2,37.88,32.4652,-5.4149
Cd2GaBr,14.4251,15.3104,0.8854
FeTcCl2,29.007,25.2249,-3.7821
MnBeCu3,28.7175,23.1658,-5.5518
MnBeCu,41.0589,33.7847,-7.2742
MnBeCu2,32.4911,26.9551,-5.536
MnCrTc2,64.8903,57.3375,-7.5527
YGaBr,0.0,2.1145,2.1145
ScGaAs2Br,19.1422,15.4562,-3.686
BeGa2SiBr,17.6076,15.3929,-2.2147
CdGaSiBr2,13.402,12.3107,-1.0913
FeAg2Sb,33.0909,27.4321,-5.6588
ZnPtO2F,33.1398,22.8223,-10.3174
PdCSe2,44.3223,35.8555,-8.4667
Na2PaSe4,38.3098,33.8085,-4.5013
Ac4AsPtBr2,46.9881,45.3355,-1.6526
Ca3U3BeN8,20.1943,20.407,0.2126
Sm3HoTm6,24.4703,27.3944,2.9241
ScSbBr2,26.166,24.4303,-1.7357
RbBa2Cr,4.7898,4.4088,-0.3809
YbZnBi2,34.5306,36.9296,2.399
CsRb3Ru,29.1617,24.7884,-4.3733
Sc2Sb2N,17.5335,13.9932,-3.5402
TiAgI2,17.3229,17.1593,-0.1636
AgSb2Br,40.9092,32.5021,-8.4072
Sc2SbBr,23.6826,22.7182,-0.9644
LiInIr2,28.0674,29.198,1.1306
HfTe2I,62.2655,52.3593,-9.9062
ScSbBr2,26.0817,24.4303,-1.6514
Nb2SeN2,56.9397,48.6381,-8.3015
SrY3Hg2,23.281,18.5501,-4.7309
CsMgCu2,13.1144,11.0974,-2.017
Zn(CdSe)2,26.2045,22.8162,-3.3884
Rb2Sn2Se2O,32.9313,27.2489,-5.6824
CeNd2N2,14.1019,16.5777,2.4758
BaLaSc2,15.7346,13.1878,-2.5467
CsSnTe3,30.8972,29.9299,-0.9673
AgPd2I,22.6627,22.5282,-0.1345
BaLaSc,19.1629,14.983,-4.18
Ac2HgN2,26.2175,27.6332,1.4157
Ba2LaSc,14.4701,11.1694,-3.3007
SrY5Hg6,21.6501,16.8883,-4.7618
CsSnTe3,34.0506,29.9299,-4.1207
HfSc2I,44.5662,35.6135,-8.9527
SrGaSn,3.3076,8.5463,5.2387
Li2GdSc,9.6686,11.138,1.4694
HgSb2,29.9993,23.4222,-6.5771
LiScMn,36.1112,30.414,-5.6972
AlAgC,26.9425,21.3625,-5.58
Si2Ru2Rh,25.8,19.0765,-6.7234
Mg(CuGe)2,7.1432,6.7264,-0.4168
PrHoSe2Br,20.2734,18.0504,-2.2231
CdGeRu,10.0614,14.2696,4.2081
CuMo2Ir,27.2753,24.9534,-2.3219
Ca2YHg9,4.4896,4.0151,-0.4745
La2InI2,29.2311,22.6102,-6.621
TaAsRh,31.924,30.1012,-1.8228
NdEu2Al,21.2472,22.7336,1.4864
ScCu5Au8,34.229,33.8845,-0.3446
Ta2PbW,41.6201,45.8966,4.2765
NbCr2I,40.1792,33.475,-6.7042
ScCu2Re,36.6375,31.994,-4.6434
NaTeC2,44.4836,34.4738,-10.0097
PrNdSm2,17.484,20.8223,3.3383
PrTh2Au,43.5062,47.1423,3.6362
BeCd2In,15.7244,16.4546,0.7302
BeCdIn2,16.033,16.1717,0.1387
YTlHg,33.597,30.9466,-2.6503
Tl2Sb2Au,44.9684,41.8535,-3.1149
RbRuSeN2,40.1254,33.2605,-6.8649
OsRuSe2N,51.4409,44.3126,-7.1283
MnCrRu2,35.2369,33.1729,-2.064
CuOsRu2N,38.9861,35.7049,-3.2812
GaRu3S,23.971,21.5147,-2.4563
PRuN2,46.1031,39.491,-6.6122
Pm2PrLu,19.6035,22.2445,2.641
ScTeP,45.6736,37.8064,-7.8672
CsBa3N,5.0887,5.9453,0.8566
SnRu2N,38.9515,36.6723,-2.2793
RbCaTh2NiS5,36.4565,31.944,-4.5125
SrSn3C,27.792,24.2677,-3.5242
GeRuN,34.1676,32.2848,-1.8827
TmZn2Co2Ge,20.4352,14.7632,-5.6721
K3Te,18.9436,17.3599,-1.5837
Sc2V3Ge4,37.1013,26.0047,-11.0966
POsRuN,40.0586,37.829,-2.2297
K3Te,18.9685,17.3599,-1.6086
Li2ScMn,27.3891,23.2482,-4.141
TbNd2SmEr6,23.3199,26.0534,2.7335
ZrSbW,60.8011,53.1405,-7.6606
TaRuI2N,40.2931,37.4399,-2.8532
BeAgPb2,35.2297,34.2455,-0.9842
TaCoMoOs,49.4151,40.2516,-9.1635
TaCr2RuN,53.7229,42.1464,-11.5764
Ta2RuRhN,49.6036,43.837,-5.7666
Ta(SO)2,25.7592,22.0504,-3.7087
Cs2BPd,15.9611,17.6958,1.7347
Ho3Cr2Pb3,32.4768,33.4749,0.9981
FeGeRu2N,44.1574,34.9441,-9.2133
TaZnI2,23.3023,24.1945,0.8922
Ta3SiI,31.9395,31.7732,-0.1663
LiSc3Mn,23.5073,20.5324,-2.9749
Ge2BiPb2,31.8896,33.9015,2.0119
Ta2PtAu,52.2794,48.096,-4.1834
ZnFeAu2,27.6179,27.5636,-0.0543
Y2CuHg2,20.8046,16.6646,-4.14
Cu(MoOs)2,27.153,25.5348,-1.6182
La2TlI,43.6973,35.9608,-7.7366
TaPtAu2,55.2504,50.289,-4.9613
HfSnRh,70.4977,53.8294,-16.6683
Be2ZnFe,16.8361,10.5952,-6.2409
Ni8Pt2W3,31.0944,24.3494,-6.7451
HfSnRh,62.8066,53.8294,-8.9771
SiRu2Se,23.8148,19.7734,-4.0414
Tm3Cr2Fe7,16.5539,15.2825,-1.2714
In2GaPb2,27.8116,29.5108,1.6992
Be2ZnFe,16.8897,10.5952,-6.2945
Be2ZnFe,17.0255,10.5952,-6.4302
Ir(IO)2,47.3776,39.4204,-7.9572
BeZnFe2,13.0343,8.8972,-4.1371
CoGeBi,7.983,14.0031,6.0201
Tm2Cu3Ni2,13.1171,14.973,1.856
Cu3(NiAu)2,18.2023,19.7561,1.5537
Ba(ZnSn)2,8.7154,10.3652,1.6498
BeZn2Fe,13.5192,10.281,-3.2382
LaAs3Ru,23.3321,17.0081,-6.3241
Tb2Cu3Ni2,11.9961,13.7793,1.7831
Ge2SeI,19.1226,18.559,-0.5636
SrCrFe,25.5715,18.8228,-6.7487
Gd4CoPb2,36.1618,35.8383,-0.3235
CsZrSc,30.4404,25.642,-4.7983
SrPCl,3.3503,9.4132,6.0629
NaTbInPd,21.8134,22.5809,0.7675
BeZn2Fe,13.5391,10.281,-3.2581
Cu2IrBr,20.8407,21.1268,0.2861
EuNpPt2,68.6795,56.0612,-12.6183
Pr11Tl9Cu4,18.7337,18.9026,0.1688
Sm11Tl9Cu4,31.3166,32.5826,1.266
InCo3Te,16.9769,17.6203,0.6434
RbTlS4,46.2429,36.3335,-9.9093
ScTc2Au,96.9889,84.5823,-12.4065
PtRhS4,60.6456,43.461,-17.1846
IrRhS4,53.1911,40.038,-13.1531
CsNpRhO6,7.9807,10.4475,2.4668
BaSbS4,40.2968,29.0594,-11.2374
AcTe2Pt,59.2364,51.8183,-7.4181
Ca2ScCr,15.2713,10.7266,-4.5447
Ac2TePt,64.2274,58.5218,-5.7056
TbPm6NdSm2,20.5007,23.6248,3.1241
Sm3GeSeBr,17.375,19.1598,1.7847
LaZrFe4,25.01,20.8292,-4.1808
Pm2RhN,24.2765,24.015,-0.2615
LuAl3,6.0022,9.6081,3.6059
Sr2GaTc,28.6811,28.1621,-0.519
NbRuBr2,50.5131,43.3827,-7.1304
Ce2PrSc,12.7386,16.2311,3.4925
LaNi3Se,24.8447,19.6437,-5.201
Ga3GeIr,15.7124,17.0993,1.387
YCuHg2,17.687,15.1043,-2.5827
La2Pm2YCd5,22.81,21.0286,-1.7814
Pm3RhPb,34.8161,33.7143,-1.1017
InSnAs3,14.8665,15.4126,0.5462
Ac4NiPt2,62.8494,56.0495,-6.7999
ScAgMo2,25.6597,25.4698,-0.1899
Be(FeGe)2,11.4733,9.5681,-1.9052
InSnAs,9.4135,11.2965,1.8831
ScMn2Sb,63.847,51.2973,-12.5496
MnCoTe2,48.6301,43.0896,-5.5405
ErScAgRh,28.1213,25.6763,-2.445
BaAgPb2,30.8137,31.3924,0.5787
Ac(In2Pt)4,44.3027,35.7192,-8.5835
LiAlRe2,17.6446,22.6699,5.0253
CaY2Hg,22.7431,19.6896,-3.0535
SrOs2Se,30.7678,36.6991,5.9313
Cs(CoW)2,18.3352,26.5246,8.1894
Be2Zn2Fe,11.9395,7.9944,-3.9451
TaS3,44.1943,33.9062,-10.2881
AcAsPt,53.7454,46.5703,-7.1751
SiRuPt2,49.3057,33.8301,-15.4756
CeMnSb,49.4696,43.3595,-6.11
Zr2BeFe2,39.0021,30.3039,-8.6983
PmSmSeBr,26.082,25.8177,-0.2643
TcSb3F,47.445,37.8449,-9.6001
ScCu5As,15.9751,14.4939,-1.4811
AsPBr2N,21.5288,17.8453,-3.6835
YRe2F,32.1656,33.0999,0.9343
UNi3C,29.7337,28.2998,-1.434
AlPd7,15.6142,17.5479,1.9337
CsCaOs2,24.5897,27.1797,2.59
BaY2Hg,40.8498,32.7329,-8.1169
K(ScRe)2,48.8309,40.5827,-8.2482
CuIr2Pt,39.7898,37.3587,-2.4311
Li5AcPt2,30.2179,23.7793,-6.4386
PrAg2Sn,18.0742,16.2036,-1.8706
LuScGaAg,19.1339,20.2033,1.0693
Hf2Zr3Sc2,84.6833,64.821,-19.8623
NaAg2B,23.3192,19.4856,-3.8336
Sc2TcRh,75.4262,62.6637,-12.7625
Hf3(Zr4Sc)2,94.6982,71.9651,-22.7331
Hf2ZrSc,89.0994,66.4105,-22.6889
TmZnGeAu,23.2483,25.8278,2.5795
HfZrSc2,63.0952,50.1086,-12.9866
Na3TbSb2,31.1244,26.0794,-5.0449
Sb2Au,45.6431,39.8897,-5.7534
Ac2Y(TcO4)3,29.6925,28.6109,-1.0815
YPS4Br,41.5795,33.0979,-8.4816
Sr8Ge2N,13.5107,13.643,0.1323
InPdPb,21.5785,25.4778,3.8993
SrGaI,11.1683,14.7763,3.608
NpIn2(Cl2F)2,14.3993,16.1828,1.7835
Ac(Pm2Y)3,20.6668,23.638,2.9712
Cr2IrAu,21.6657,23.4242,1.7585
Ac2BiPt,67.4422,62.8778,-4.5644
AcTmPt,49.3524,44.7805,-4.5719
Li8AcPt4,32.244,23.7999,-8.4441
PrThPd4,21.3515,24.5174,3.166
InCoPb2,31.7847,31.8971,0.1124
AcNpPt2,77.755,65.3678,-12.3872
Mn2Al4C5,46.8754,36.2455,-10.6299
YTa4Hg,38.9946,36.4827,-2.5119
LiPrYTc,60.4817,53.0212,-7.4605
Eu2Ni3Ge,16.7141,16.9416,0.2275
Ba2SbAu2,23.8687,23.6393,-0.2293
In2Co2Pb,22.92,23.059,0.139
TlInCoPb2,38.3662,37.6969,-0.6693
GdNiGe2,18.0915,17.5358,-0.5557
BaSbAu3,37.0329,36.0496,-0.9833
MnGa3Sb,34.1756,28.74,-5.4357
Pm12Sc3Pd5,7.881,10.1477,2.2667
InCoPb2,35.5381,31.8971,-3.641
Gd3In3NiGe2,20.5022,20.6234,0.1212
Te2Pb2Se,43.9489,41.471,-2.4779
YV2Hg,77.506,60.5074,-16.9985
Pr5YTe8,23.019,21.6775,-1.3415
LaSmSb,23.3939,19.5495,-3.8444
USnPt,43.9287,39.356,-4.5728
In3CoPb,25.5303,24.9669,-0.5634
NaAgS,26.7917,22.3734,-4.4184
Sn2MoPd,37.4557,29.9032,-7.5525
BeZn2C,25.9834,18.3518,-7.6316
BeZn3C,22.2339,15.8003,-6.4337
YReHg2,22.8897,21.316,-1.5737
IrOsAu2,45.6591,48.6331,2.974
La3(PmNi)2,30.8151,25.218,-5.5971
YHgW2,33.1405,32.8041,-0.3364
CsBe3C,18.5044,16.1077,-2.3967
Nd2Th3Ni2,36.8956,40.1033,3.2077
GdTlRu,5.743,11.7932,6.0503
ScPbF3,16.4973,15.1771,-1.3202
TiPb3Au,47.4814,44.7608,-2.7206
NiRuS,19.8539,18.4444,-1.4095
Mn2IrRu,69.261,57.8267,-11.4343
IrOsAu2,45.6497,48.6331,2.9834
TmZnGaGe,13.5371,15.3305,1.7934
Pr2Er3Ni2,21.241,19.2734,-1.9675
K3DyF6,3.2905,4.2514,0.9609
Rb2NiPbBr6,15.1828,13.9001,-1.2827
TmAlZnGe2,15.738,15.6402,-0.0978
Y4Hg,20.3679,18.2101,-2.1579
Pr2Tm3Ni2,21.7849,19.7971,-1.9879
PuAlNi2,21.9883,24.8288,2.8405
Re2Ni2Ir3,53.9694,44.3352,-9.6342
SrLaAl2,17.8762,15.0104,-2.8658
MnSiIr2Br,44.8008,39.4228,-5.3779
Ta2Os,38.4444,44.646,6.2016
AcSmPt2,66.1005,53.7446,-12.3559
Ho2GaSi4Ir3,24.6214,23.4443,-1.1771
Ac2SmPt,60.4441,56.0765,-4.3676
SrYHg2,15.4309,13.4827,-1.9482
CsSn3Os,25.9433,26.8265,0.8832
Pb2CBr2,50.636,40.8921,-9.7439
CrSnOs3,34.0113,34.888,0.8767
LiScI3,14.7528,15.1007,0.3479
BeTeRh2,34.9981,28.4631,-6.535
K2YTe,19.7512,19.4219,-0.3293
AcNdPt,53.2685,46.2233,-7.0452
LaFeBi2,34.3656,33.3453,-1.0203
Hf(ZrIr)2,75.6232,63.6641,-11.9591
Y3TiHg,38.3438,28.9564,-9.3874
BaReC2,54.3175,42.5661,-11.7514
TmHfPb,75.5838,64.3747,-11.2091
SmSi2Ir5,35.6894,35.4781,-0.2113
AcTb3Pt,46.3567,41.9189,-4.4378
YCu2Hg,19.5355,17.3507,-2.1847
GdTmRuPb,31.9097,35.4052,3.4955
U2AlSi4Ir3,36.3964,34.7737,-1.6227
InGeAu,21.8985,24.5538,2.6553
YZrHgPb,50.1248,43.3679,-6.7569
Na(La2Re)2,45.5854,35.0503,-10.5351
SmPuCoAg,33.6996,34.8141,1.1144
TmSi3Ir,16.5749,16.0445,-0.5304
LiSc2Re,35.1399,29.1206,-6.0193
NdNiI,12.3678,17.2035,4.8357
Th(SnSe2)2,36.8677,33.491,-3.3767
TmScCuHg,25.8774,22.9324,-2.9451
Zr2ReAgTe,63.287,53.2172,-10.0698
Sr2MgSnO5,18.6546,17.2178,-1.4369
Sr2MgInO5,1.3384,3.5404,2.2019
Th2SnSe,49.2493,50.136,0.8867
Zr2Tl2Tc,78.854,68.4892,-10.3648
LiSc2Nb,38.5876,34.6212,-3.9664
PrGdYHg,18.6823,17.5047,-1.1776
Na2AgPd2Au5,31.6941,31.7574,0.0633
Os2WAu,106.4604,89.3288,-17.1316
La11Ho4Er9,39.4836,31.8699,-7.6138
La11Ho9Er4,39.2625,31.682,-7.5804
Sc4BiTe2,18.38,19.1037,0.7237
La3Pt7Au2,72.1158,50.7262,-21.3896
NaCaSnRh,24.555,21.3781,-3.1769
Sb2TeBr,43.8137,38.4308,-5.3829
Y3TcHg,70.4263,58.061,-12.3653
Na2LiGe4Pt3,35.112,25.6854,-9.4265
Ta(NbNi)2,57.9822,51.8268,-6.1554
Ac2Sn3PtRh4,47.0257,39.1423,-7.8834
Zr2TlTc,84.9901,74.2283,-10.7618
ZrTlTc2,83.7374,73.4759,-10.2615
Ac(SbPt)3,60.8757,44.8413,-16.0344
LiNdLuRu,18.4752,22.1312,3.6559
KRbSe2,24.0364,20.1369,-3.8995
Pd2Pt3Au2,57.0163,45.8381,-11.1782
LiAc2(SbPt2)3,66.2162,48.9524,-17.2638
YTh2Hg,45.6203,45.4617,-0.1586
Ta3(IrPd)2,32.9184,36.9593,4.0409
ThMnPd,45.5896,45.456,-0.1336
Er2Pd3Au2,28.8182,31.0782,2.26
Ac2Al3GaPt4,49.3931,38.521,-10.8721
K2ScHgF6,6.5684,6.7316,0.1633
SrAlCr2,11.4727,9.5529,-1.9198
Mn2Tl3S4,58.798,48.0847,-10.7133
Mn2GeN,36.2194,32.4629,-3.7564
TaCdSi,24.8374,24.4504,-0.3869
ZrCu2Mo,43.5507,33.7214,-9.8293
CdIr2Se,34.1195,35.7598,1.6403
Zr2CuMo,66.4984,51.6437,-14.8547
LaPuI2N,27.1412,24.6768,-2.4644
Hf11Zn9Fe4,71.1667,49.811,-21.3556
TcNi3Se,33.2624,29.0978,-4.1646
Fe9Co4Ni11,44.4703,30.3918,-14.0784
Y2ZnHg2,21.7246,17.391,-4.3336
BeGaIr2,23.3753,27.2841,3.9088
ScMnN2,16.8079,16.5349,-0.273
Fe2TePOs,39.6507,33.3187,-6.332
LaTeI2,34.2091,29.7629,-4.4462
TcAgN3,28.5851,24.3627,-4.2224
K3Ag2Sn7,20.3251,19.5801,-0.745
Pu(InI2)2,28.5031,29.466,0.9629
YbNdAs,17.7761,21.8399,4.0638
YZn2Hg,16.1781,12.7052,-3.4729
K2BaAs5,5.0119,5.7276,0.7157
SnBiS4,45.9831,37.5846,-8.3985
BPdPb3,36.249,37.2991,1.0501
K3Tl5Au2,35.9841,36.2546,0.2705
K2Na15Sr2,22.1505,18.0577,-4.0928
Ca2TeMo,19.0973,17.1142,-1.9831
AcCd2GePt2,48.1694,39.1759,-8.9934
LaSmI2N,19.3718,17.1191,-2.2527
NaAg,14.2633,12.5861,-1.6772
Y2ThHg4,23.537,20.7763,-2.7607
Y4Zn2Hg,22.6696,18.5008,-4.1687
Ru2BrN,34.2746,29.6015,-4.6731
YZn2Hg,16.2964,12.7052,-3.5912
Tm3(Si2Ir)2,25.5402,23.5665,-1.9737
BeTc2Mo,53.2768,46.0316,-7.2452
Sr2IN,13.9638,13.7476,-0.2162
PtAu3Br,50.4868,44.8869,-5.5999
YbAsPb,27.9072,30.8335,2.9263
CeLuPd,25.069,28.2514,3.1824
Ac2TlInPt,52.6027,50.2048,-2.3978
V2GaGeP,63.3052,49.5167,-13.7885
Sm11In9Ga4,19.7869,20.9832,1.1963
Tm11In9Ga4,22.4282,23.6544,1.2261
BaGaGeAu2,23.7882,23.601,-0.1872
Tm11Tl9Ga4,34.1603,35.2592,1.0988
Mn4VFe,89.7641,72.3039,-17.4603
Nb5Ge3B,72.7921,60.8081,-11.984
YbAsSe,45.4895,43.7631,-1.7264
Tb2Pd3Au2,28.0463,30.3217,2.2754
RbNi(IBr3)2,11.91,12.4272,0.5171
Yb(AsAu)2,29.5147,31.0332,1.5185
Sr2In8Pd,18.1475,19.1671,1.0196
YAlHg,21.4548,20.8331,-0.6216
BaLa(CuSb)2,25.8354,19.784,-6.0514
LaNbCuSb2,59.5255,45.8743,-13.6512
Pr3ThSn12,18.294,19.5151,1.2211
LaFeCuSb2,45.3048,33.3771,-11.9278
BaZrSeBr2,33.7945,27.6573,-6.1372
YAlHg2,18.935,15.1106,-3.8243
Tm2Pd3Au2,29.1803,31.4914,2.3111
Ba2LiGe4Au3,18.2291,19.0419,0.8128
ThCuSb2,34.5246,32.4713,-2.0533
Ca(SnRu)2,9.5902,13.1984,3.6082
Mn2BeSn2,45.1105,36.2056,-8.9049
La2Nd3Dy7,30.8333,29.7009,-1.1324
TlOsW,130.6685,105.6305,-25.038
GePSeO2,19.7135,15.3768,-4.3368
Ac(PdPt)6,54.1428,41.5029,-12.6399
CaOsRu,13.7134,20.3426,6.6292
Ac2Ga3Cu12Pt,19.1337,17.9915,-1.1423
TcMoW2,46.2765,48.21,1.9334
Ac7La2Pm3,52.5427,51.6194,-0.9234
AcIn2CuPt2,48.0222,38.8882,-9.1341
Mg2ScCoRh,17.5204,12.5659,-4.9545
Ba2InGeAu,15.045,16.121,1.076
NaPmHo2,26.6542,28.0703,1.4161
Mn2NbPb,91.7068,78.347,-13.3598
BaInGe2Au,18.0957,18.8126,0.7168
AcMnCuPt2,63.1636,49.314,-13.8496
ZrScPS,61.3463,48.8903,-12.456
Ac3LaPt,66.6294,58.4504,-8.179
LuPuPb2,52.4943,55.2121,2.7178
Pr5In4Au,9.7301,12.177,2.4469
LiY3Hg2,21.8126,17.0232,-4.7894
LiY2Hg3,14.8375,12.1572,-2.6803
Sc4PS2N,36.1154,32.0961,-4.0193
PO,19.1638,12.7336,-6.4302
LiAcPdPt,42.419,37.6086,-4.8104
Sm3(PdAu)2,28.6376,30.5348,1.8972
CsReSiO6,15.6435,15.0609,-0.5826
LiY3Hg4,19.6439,15.637,-4.007
HfTiS4,61.2589,45.5174,-15.7415
NbAl2B,31.1371,30.2854,-0.8518
GdTlGe,29.5651,31.6238,2.0588
Ba2GeMoAu,16.1102,16.0182,-0.092
GdLuInNi,23.1997,24.974,1.7744
Li(YHg4)3,9.607,7.5498,-2.0572
PrGd2Se,24.887,24.7583,-0.1287
LaYHg2,24.9962,18.3312,-6.665
LiIrPb,32.451,35.1953,2.7443
Rb2HfPd,38.562,30.0062,-8.5557
Ge3Te2Au,22.6908,23.0984,0.4076
Ta2AsF2,41.7466,36.5898,-5.1568
CaTmTh,29.611,36.9992,7.3882
La2Y3Hg4,24.154,17.2031,-6.9509
EuAgSn2,24.8863,24.5473,-0.3391
ZrSnOsRu,43.9217,42.5937,-1.328
HfGeRh2,54.7821,38.5323,-16.2499
LiEuThOs,34.1254,37.4628,3.3373
Be2ZnBr,10.6742,8.3115,-2.3627
LaY2Hg,38.1004,27.8948,-10.2056
LaY2Hg,38.103,27.8948,-10.2082
ZnGa2Re,23.4467,20.4604,-2.9863
LaNiTe,27.955,24.1835,-3.7715
Zn(GaRe)2,23.9083,22.6553,-1.253
Nb2Ni2Bi,63.0443,55.6334,-7.4109
La3CeN4,21.5591,15.7736,-5.7855
Ce11In9Ir4,25.5381,26.7976,1.2596
Be2AgPb,23.1013,21.5973,-1.504
RePOs2,52.4786,48.4568,-4.0218
TaWS4,49.6268,41.6201,-8.0068
LuScNiRh,23.1929,22.4247,-0.7682
Li3YHg,12.2884,9.4974,-2.791
PmY5Cd3,12.022,14.8157,2.7937
ReHgOs,27.8734,32.5594,4.686
La2YHg2,26.5819,18.823,-7.7588
RePOs2,52.1603,48.4568,-3.7035
HoTmSc,17.7991,22.1254,4.3262
YThMgHg,29.7078,28.5675,-1.1403
RePOs,55.1056,51.0872,-4.0184
Rb2AlSi,14.4337,11.2608,-3.1728
TePtS4,59.7471,44.1913,-15.5558
AlReSi4,24.3657,19.297,-5.0687
PuTeS4,56.2889,45.1118,-11.1772
PrGdAgOs,24.2768,25.9715,1.6947
Hf4Ge2Mo,86.7901,64.254,-22.5361
Na2Ca4P,17.8704,15.1109,-2.7595
MnAuSe2,55.4989,46.4669,-9.0321
MnAuSe2,61.1408,46.4669,-14.6739
TiCrS4,47.1082,35.2651,-11.8431
Y6HgN,33.0645,28.5948,-4.4697
Pu11In9Ir4,47.388,49.2388,1.8508
Re2BiMo,33.0408,34.6529,1.6121
YRe3Hg,36.6098,35.3903,-1.2194
LiTbScRe,39.9605,34.9016,-5.0589
La2Ag(IN)2,26.9157,19.9894,-6.9263
RbSc2W,15.7476,16.4341,0.6866
Y2ReHg,35.5417,31.5622,-3.9794
Ta2SiS,36.0135,33.7104,-2.3031
BaTm2Al,25.5032,24.2831,-1.2201
K6Ge2O7,8.1992,6.6305,-1.5688
K4UO5,3.5437,5.8637,2.3199
K3Sn5Br12,3.6947,4.7194,1.0247
TaWS2,46.9471,43.3484,-3.5987
ThTaS2,53.3576,48.5223,-4.8353
Ac2PtSe,65.5647,58.1575,-7.4073
Sr6Bi2Os,25.4278,26.7035,1.2757
TiSb(H3Au)2,13.3414,12.025,-1.3164
CoSbBr2,32.8968,27.8995,-4.9974
TiIr2Au,34.1358,34.305,0.1693
AcTb2Ho,36.6861,40.0841,3.3981
Bi2AsP,39.7565,38.3023,-1.4542
Hf6TaS,119.2696,86.7955,-32.4741
La3Ge2Rh7,42.3403,29.9918,-12.3485
Lu2PuSb,45.821,46.1049,0.2839
LiAlPb,19.4353,22.263,2.8277
Ta(SN)2,31.6899,25.7027,-5.9872
TaPbBr2,36.2485,33.8977,-2.3508
Sr3TiSn,20.9519,16.71,-4.2419
Ac4P3Pd12Pt,27.9226,27.6414,-0.2812
TaReSbTe2,42.6397,39.8962,-2.7435
CuSbIr2,28.8704,30.614,1.7436
Ca2EuPa,26.769,29.0304,2.2614
Ge(NO)2,1.7438,5.8016,4.0577
Ni5Pb,14.1004,16.2336,2.1332
LiAl2Pb,17.8233,17.8857,0.0624
SnPW2,83.2305,72.3911,-10.8393
LiAg(H3Rh2)2,19.5009,13.6145,-5.8864
SiAsBr2,22.8485,19.8846,-2.9639
LiAl2Pb,17.7388,17.8857,0.1468
PmErLuPa,39.1371,42.7818,3.6447
NbTlB2C,62.5314,51.8453,-10.6861
PrTaAl4,8.3187,9.7825,1.4637
HfTlSe2,65.9536,54.153,-11.8006
Ta3VS,79.2218,64.879,-14.3428
Li2AlPb,16.9692,16.7542,-0.215
TcAsBr2,31.5102,28.8992,-2.611
LuScAu,28.1916,31.1163,2.9247
Sc2CrW,22.7618,22.4934,-0.2684
Ac2TiSn3Pt4,58.0985,44.5284,-13.5701
Cr2ReW,24.0929,26.835,2.7421
FeBi2Au,35.0619,41.4687,6.4068
ScCr2W,23.6568,22.28,-1.3769
Pr12Nd6Sc,5.1504,6.2148,1.0644
CuRhPb,36.408,34.0094,-2.3985
ScCr2W,23.5348,22.28,-1.2549
CaOsRh2,30.4137,26.0521,-4.3616
Pr5Nd3Tl,7.2147,9.7942,2.5794
LiEu2Au,25.6859,27.242,1.5561
ScCrW,28.4323,28.2662,-0.1661
YbAlSi,18.7584,19.5341,0.7758
SrAc2Pt9,78.1907,56.6432,-21.5475
TbThBi,42.8312,47.9106,5.0794
AlV2CdC,70.6209,54.6275,-15.9934
PrThZr,53.3229,49.6195,-3.7034
TaIn2Pb,32.7342,34.685,1.9508
Li2UTa2O7,21.3782,20.4695,-0.9087
RbGaRe2,24.6502,26.3008,1.6506
InSi2Ir,23.3474,23.6774,0.3301
Rb2YNb,41.4236,34.2823,-7.1412
Ac2TiSi3Pt4,52.6481,39.378,-13.2701
CsAg3Ir,33.0245,29.6257,-3.3988
MoPbW2,36.8844,41.4144,4.5299
TeIrSe,45.5925,43.2429,-2.3496
NbAs2CSe,67.3983,55.4179,-11.9804
NiBW3,33.0238,31.4769,-1.5469
Ta3AsC,25.2817,28.2437,2.962
VTe2I,58.9549,51.4422,-7.5127
Na(BeCu)2,14.7549,10.7019,-4.053
ZrSe2Br,50.7109,42.9341,-7.7768
ReB3Cl,11.6999,12.3905,0.6906
Cs3TeIr,32.0609,32.1615,0.1006
NaHf3Be,93.0732,66.8144,-26.2588
Si2SbIr2,31.9034,28.5118,-3.3916
ZrTa2As,36.59,38.8375,2.2475
CoPbAu2I,37.9361,36.8751,-1.0611
AgTeIr2,40.4374,40.9199,0.4825
Tb2TlSb,36.5616,36.591,0.0294
AcSnI,35.5728,37.2188,1.646
ZnMoP2,9.7154,9.3777,-0.3377
GaAgGe2,11.2625,12.8009,1.5384
AgTeIr2,40.6406,40.9199,0.2793
Li2PtAu,34.2367,27.9434,-6.2932
HfTeS4,68.1114,51.2447,-16.8668
AcTh2Pt,71.3216,67.0719,-4.2497
Ba2CdGe4Au3,19.337,20.5504,1.2134
AgTeIr,39.5023,38.1476,-1.3546
Zr3SeBr,71.3996,56.4077,-14.9919
Nd2TaGe3Ir4,28.0318,30.5701,2.5382
AsPAuC2,38.2859,30.3035,-7.9823
AcZn(SiPt)2,46.4536,35.5362,-10.9174
LiNdZrRu,34.7797,32.6889,-2.0908
KNaPt2,50.5593,34.8943,-15.6649
RbFeCo,11.8069,8.5568,-3.2501
Rb2CoMoF6,6.5202,5.9405,-0.5797
Cs2YPt,34.7113,30.2157,-4.4956
CaAlCo,21.4841,15.6643,-5.8198
ScTlAg,28.8955,28.534,-0.3615
GdTe2Pb,40.7429,40.9762,0.2333
ScTl2Ag,34.547,35.4366,0.8895
Ac3Si2Pt9Pb,71.4539,52.4867,-18.9672
Y2HgIrC,40.5102,33.2422,-7.268
CsCaSn3,19.3205,19.7041,0.3836
Pb2WN,31.9899,35.5065,3.5166
Tm11In9Hg4,21.0179,22.3252,1.3073
YHg3Os,18.9142,17.5157,-1.3985
K2PI6,16.1932,15.9608,-0.2324
Sm4DyHg2,18.1599,20.3684,2.2085
CsSc(CdI4)2,20.1219,20.7943,0.6723
Os2PdO,40.4573,41.1269,0.6696
BaPrAg4,19.9947,16.7998,-3.1948
LaZrAs,32.1704,25.9631,-6.2073
GeOs2Rh,35.7993,36.0903,0.2911
HfGe3Mo,38.0074,30.9209,-7.0865