Formula,E_hull_DFT (eV/atom),E_hull_ML (eV/atom),Delta (ML - DFT)
Na2CaZrBr,33.7523,27.4136,-6.3387
Ba2MoPb,18.8046,18.7981,-0.0065
Ac4AsPtS2,57.2962,51.822,-5.4742
AgSb2Se,39.1429,32.4947,-6.6482
Co2AgSe,23.3734,20.3705,-3.0029
Er2Si2GeIr5,23.0105,25.7964,2.786
Zn3CdSi,12.7963,11.8431,-0.9532
NbGeSe2N,50.3307,40.6689,-9.6617
YSb2Br,36.0014,34.1854,-1.816
KZnP,8.5208,8.3849,-0.1359
Na2Li3PuF12,10.4683,11.9413,1.473
KBa2Ir,14.3337,15.3851,1.0514
Tl2Ir,48.7251,50.9653,2.2402
HgRh2W,34.3579,29.5137,-4.8442
Co2AgSe,23.3116,20.3705,-2.9411
Y2SbBr,28.0654,27.3998,-0.6657
SiC2,47.2333,32.6777,-14.5556
Na2PaVO5,25.8874,22.1648,-3.7226
K2CaY,16.29,12.8267,-3.4633
YThPd4,23.4065,24.5136,1.1071
Co2AuSe,28.179,26.3909,-1.7881
FeSiN2O,10.1515,7.452,-2.6995
Sr5Tl4Pb,31.8666,33.316,1.4495
BeAg2Te,27.1294,22.976,-4.1534
BeAg2Te,27.2721,22.976,-4.2961
TeI2,27.1996,27.7607,0.5611
LaYAgHg,32.9971,26.4585,-6.5386
NaNbSeI2,53.0931,42.2372,-10.856
CuSiSe,25.0107,19.3389,-5.6718
RbTi3Os,14.5531,16.0432,1.4901
Tb2NdRh2,28.3013,25.6379,-2.6634
LiSi4Os,14.1716,12.0917,-2.0799
TaFe2Se,21.5059,21.5189,0.013
YSbBr3,24.9064,22.8239,-2.0826
LiYTmAg,18.9668,19.4778,0.511
Ac2SbPt,64.9522,58.3274,-6.6249
Li2ZrSi,33.7021,29.3912,-4.3109
Dy3BC3,36.3449,28.8737,-7.4712
LaYSiAg,42.6063,35.0377,-7.5686
LiDySb2,28.7584,26.5684,-2.19
YTmZnAg,22.5395,21.1908,-1.3487
AcY2Sc,24.4161,26.509,2.093
Ac3SnSb2Pt9,73.3832,57.4255,-15.9576
TbMgAg6,27.0385,22.5489,-4.4896
Co2SeBr,23.8656,19.8066,-4.0591
Y3(ZnPd)4,21.8753,19.6763,-2.199
CdH6Ir2Pd,8.2831,10.1137,1.8306
Th2CuSb4,44.7759,42.2184,-2.5575
SrSiTe2,39.0472,32.7901,-6.257
Co2TcBr,35.9899,30.11,-5.88
LiAc2Sb3Pt4,61.3002,49.5008,-11.7993
Co2TcBr,35.9518,30.11,-5.8419
SiRu2Pb,31.8166,28.0094,-3.8072
Ac6TlCd2,52.728,53.7326,1.0047
Ba2BeP,9.6915,8.2348,-1.4567
CsCo3Tc,29.8706,26.7913,-3.0793
Nd7Y12Sc,18.5408,18.5899,0.0491
Sm4NO3,11.0949,11.762,0.6671
Tm6Cu2Ag,20.8379,22.6089,1.771
ErFe4Ir,12.0254,15.0771,3.0517
Ac2YSc,37.3222,40.1892,2.8669
LiAc2SbPt6,70.3854,55.4462,-14.9392
Nd6Co2Os,16.3743,19.3372,2.9628
ScMn2Cr,61.4391,49.2131,-12.226
SrAcHgPb,32.0361,34.1592,2.123
PmPRhS,26.6444,26.474,-0.1704
Ac(NdY)4,18.8855,21.9709,3.0854
Y2TeMo2,32.8142,22.3756,-10.4386
ScMnCr2,38.679,31.5419,-7.1371
Nd(Ho3Co)2,17.6977,20.6794,2.9816
VPbS2,67.6147,53.3832,-14.2314
Nd(YTm)4,17.1247,20.4565,3.3318
TlGa(TeO3)2,16.6912,15.1971,-1.4941
Li2ScIr,20.7035,15.1984,-5.5051
Ac(PmY)4,18.9547,21.7151,2.7604
TaCrSe2,60.534,44.3924,-16.1416
Ac4Ir2Pt5,71.1965,60.6469,-10.5495
Li2ScIr,20.9551,15.1984,-5.7567
Li2ScIr,20.9904,15.1984,-5.792
RhI,23.9413,21.3545,-2.5869
SmCuAg,20.9563,20.7493,-0.207
AcPrPdPt,40.7937,36.3713,-4.4224
Ho2AgRu,26.1127,26.6606,0.548
Tb2PtF,36.0446,33.07,-2.9746
Na2CrSb,26.2181,23.7843,-2.4338
Na3CrI,21.6084,19.6125,-1.9958
ScTl3,39.3313,40.8466,1.5153
ZrOs3Rh,57.2535,52.0329,-5.2207
BaGePPd3,7.4591,9.5763,2.1172
Li2ScIr,20.5012,15.1984,-5.3028
Ca2TcRu,25.8311,24.9744,-0.8567
TiNbN2F,30.9624,25.6839,-5.2785
AcTePt,64.3821,56.9117,-7.4704
Tm2TlI,33.3735,35.2918,1.9183
Y4Te5,28.4791,28.4032,-0.0759
Sn2OsPb,34.5977,36.9686,2.3709
GaIrN2O,25.063,22.6874,-2.3756
Y(Ga3S4)2,34.2021,25.8949,-8.3071
BeAlCu2,15.4603,13.3514,-2.1089
CaTbNd6,22.4812,23.8012,1.3201
Mg2TiCuH6,6.6939,6.0744,-0.6195
Hg4Mo2O9,5.7198,6.9149,1.1951
Zr7Pb,92.5335,78.2644,-14.2691
YSc2Be,9.7407,9.6441,-0.0967
Ho6Fe2Cu,22.4407,22.8843,0.4437
AlIrN2O,11.8648,11.6913,-0.1735
Sc2Fe,24.2366,25.287,1.0504
TmInI,20.1037,23.8477,3.744
Nb2VN,103.1359,82.5625,-20.5733
La2GaPb,40.5166,35.3956,-5.121
Pm(ThRh)2,42.7443,40.4252,-2.3191
AcTePt,58.6827,56.9117,-1.771
NaLi2As2Pb,16.0136,15.9973,-0.0163
SbTeRh,28.7261,26.2808,-2.4453
BaV2Si,62.8498,47.4778,-15.372
Ac2TePt,63.8522,58.9711,-4.8811
MnIr3Ru,54.2404,48.5683,-5.6721
La2PuCd6,32.0039,30.0721,-1.9318
SmEr3Ag2,25.3416,25.0382,-0.3034
InSbPbAu,41.1965,40.6289,-0.5676
BaC3,49.6128,32.8816,-16.7312
BeRh3,37.7254,27.2075,-10.5179
ErNi4Pb,17.5256,19.9092,2.3836
Rb(FeI3)2,11.6367,11.9794,0.3427
ScFe2As,44.764,40.0556,-4.7085
TlGaIO2,43.9971,37.2279,-6.7692
La(CeCd3)2,23.7781,23.5602,-0.218
Cs2CdAs4W,15.0784,15.9963,0.9179
TcPb3C,63.7304,55.9578,-7.7726
AlSnN2O,28.539,23.392,-5.147
Pm(PrRh)2,22.1134,18.5295,-3.5839
ErNiBr,9.5153,14.6744,5.1592
Ti2Nb2Te7,53.1811,45.5479,-7.6332
Pr(Tm3Fe)2,19.4016,20.805,1.4034
ScMnTl2,47.2698,44.5448,-2.7249
Pm(Tm3Fe)2,17.8809,20.4189,2.538
AgCN2,39.7579,32.1117,-7.6462
Ac(PmCd3)2,25.1471,26.6756,1.5286
Ac8Te4AsPt3,58.841,54.1991,-4.6419
Co2IrSe,26.411,26.5562,0.1452
Na(PtAu)2,59.7879,49.4638,-10.3241
Rb2BaTaSe4,28.0724,23.3077,-4.7647
SrAg4F8,15.5752,13.9508,-1.6244
Pm2PuCd6,26.0486,27.6161,1.5675
VIr,57.4884,54.679,-2.8094
Tb4SmAg5,28.4968,26.7921,-1.7048
IrN2O,6.7998,10.791,3.9912
Pm(SmCd3)2,20.7673,22.4483,1.681
NaPmBi,34.3649,34.7737,0.4088
Ho6Fe2Pd,14.8881,17.6776,2.7895
NaVIr2Pt,67.9689,56.3873,-11.5816
BaYAgB2,48.6299,40.0291,-8.6008
Rb2TeI,13.838,13.98,0.142
CeSc,8.9786,13.6328,4.6542
Sc7Tl,10.7386,12.2835,1.5449
DyY4In,18.2676,19.8754,1.6078
ErNbN2,33.3199,28.6986,-4.6213
Sr2Ag2Pd15,18.5127,18.9758,0.4631
Zr2ReTe,69.702,63.169,-6.533
BiTeRu,21.3201,26.4699,5.1498
NaZrTa2Mo,44.2511,41.5986,-2.6524
CuI2,17.4964,19.3168,1.8204
LaCo2Se,27.9281,23.2992,-4.6289
KMn2Ag,56.8106,44.9844,-11.8262
NaZn5Ag2,15.722,13.9899,-1.7321
HfNiGe,59.0874,42.1499,-16.9375
ScTe,26.4081,26.1115,-0.2966
LaTbY4,22.3136,21.9564,-0.3573
NaPmBi,34.2951,34.7737,0.4787
PdICl,11.8262,12.547,0.7208
Sm2ThCd6,25.4027,27.1768,1.774
TaTlGaS2,59.8834,46.5907,-13.2927
NaPmBi2,39.151,39.697,0.546
Tb3ErCu2,16.0431,18.3458,2.3027
Sm(Cd3Au)2,25.8291,26.9774,1.1483
Tc2GeSb,59.9819,51.1333,-8.8486
TiNbRu,25.102,27.7417,2.6397
KBaOs2,25.3476,26.077,0.7295
SmNiGe,13.7396,14.5877,0.8481
Sm6Tc2Ag,34.9027,32.8811,-2.0215
CeSnRu,12.9339,16.9206,3.9867
As2RuC,30.4805,24.6316,-5.8489
NaLi2Y,7.6607,8.8931,1.2324
Tm6CuSn,37.7756,36.8629,-0.9127
Al2CuSb,15.6972,12.1153,-3.5819
AcPr5Nd4,13.9413,16.3935,2.4522
Na(VNi)2,53.0294,43.5511,-9.4783
LiYCuAg,25.8848,20.418,-5.4669
Tm5Cu2Sn,29.6933,29.9924,0.299
PrNiGe,7.0609,7.0578,-0.003
Re(IrRh)2,44.9257,42.3423,-2.5834
Pm6Fe2Sn,13.0566,15.4851,2.4285
Cu3BiRu,19.6833,20.5405,0.8571
CuSiRh,24.7344,19.643,-5.0914
PaAgSb,47.8196,45.0844,-2.7352
CsTaMo2,24.6337,27.2193,2.5856
GdGa4Rh,11.8029,11.462,-0.3409
SiRhF2,22.9636,19.2423,-3.7213
NaCuAs2Br,15.1599,13.344,-1.8159
Na(FeI3)4,19.4773,19.4645,-0.0128
Y4TmTl,22.6953,25.6326,2.9374
InRhNO2,21.629,17.9974,-3.6315
Sm2AgRu,24.7184,25.3655,0.6471
Rb2LiI4,13.8932,13.4003,-0.4929
LuNi,3.405,11.6394,8.2344
Ce6CdBi2,30.7021,32.4457,1.7436
Ba4RePb,24.3271,21.3381,-2.9889
Cd(ReOs)2,50.8201,49.036,-1.7842
Rb2SbW,21.2882,19.5028,-1.7854
Sr2YTe,22.5415,20.9902,-1.5512
AlAgMo2,26.2852,20.6259,-5.6593
Zr2TcRu,75.8563,66.236,-9.6203
YTeW2,43.3361,36.7002,-6.6359
LaSmYPu,40.849,39.6213,-1.2277
PdN2OF,18.8257,16.7535,-2.0722
VBi3Sb,67.9326,60.6969,-7.2358
HgSb3W,36.354,31.9733,-4.3807
V6Sn2NO,95.9416,72.7765,-23.1651
LiZn(GeO3)2,8.2046,6.8866,-1.318
Na(InHg3)4,5.9377,5.9826,0.0449
AcYIn6,25.4881,25.5621,0.074
Rb3ScRe,29.5029,21.6035,-7.8993
NaMnS3,59.7858,47.416,-12.3698
Na3TaIn3Se8,36.2965,30.3796,-5.9169
Sm2ErRh2,34.8436,31.3117,-3.532
AcTmPt2,61.0528,50.6508,-10.4021
Rb3NiW,14.92,11.7625,-3.1575
Cu4TeIr,19.0187,20.5682,1.5495
Na2(PaSe2)3,47.8542,42.5452,-5.309
Ba(AgPb)3,33.0884,30.8875,-2.2009
Na3Zr3TaSe8,51.5489,42.1999,-9.349
Y2ErTh2,37.9053,40.5,2.5947
InAg3N,25.15,20.3331,-4.8169
Nd5(YIn2)2,22.1336,22.4936,0.36
TaNi3Pb,23.1488,24.865,1.7162
ScTaPb2,91.0002,79.5579,-11.4423
Sm(BiRh)2,40.0913,36.4111,-3.6802
SmTmAl,19.5223,22.5659,3.0436
Li2Pm2GaPd5,10.3019,12.3449,2.0429
InAgP2,15.1156,14.5812,-0.5343
YSbIr,33.7362,34.8773,1.1411
ScTa2Pb,86.9569,76.3211,-10.6358
ScTa2Pb,86.848,76.3211,-10.5269
YHo4Th,32.2041,35.8263,3.6222
BeRhAu2,35.9172,34.1036,-1.8135
CsLaO2,25.7464,26.3217,0.5753
YSbIr,33.8412,34.8773,1.0361
Np2NO,34.4521,35.7552,1.3031
BaLiMn,36.5884,29.8153,-6.7731
Pu6CdSn2,55.0786,55.6935,0.6148
LiSmLu,19.7727,22.2507,2.478
NaLaTi2As,30.8163,22.0598,-8.7566
YSb2Ir,36.7538,34.9831,-1.7707
In2PbF4,16.6217,17.4929,0.8712
Ac4Si2Pt5,65.8347,53.8745,-11.9603
LiSb2W,32.4493,30.7611,-1.6882
Rb3Sc3TaSe8,42.5562,34.0846,-8.4717
ZrScCu,51.1537,43.2367,-7.917
InPbF3,18.3145,19.1838,0.8693
Be2CrCu,6.5834,6.1305,-0.4528
CsTe(IO4)2,21.6601,18.7274,-2.9327
Ca2SbPb,24.5141,24.3207,-0.1935
Y2SbIr,28.4361,29.9647,1.5286
Ca(SbPb)2,37.2025,34.189,-3.0135
Ca2InC,19.1056,17.4721,-1.6336
In2SiW,23.969,24.3581,0.3891
Dy3Y6TmSc2,17.2126,18.6707,1.458
Co2ReSe,25.6049,25.4394,-0.1655
SrAlSe2,27.9568,24.435,-3.5218
CaY2Zn,17.2044,13.9609,-3.2436
CsSnF3,11.3725,10.6351,-0.7374
InNi,12.9336,15.4251,2.4915
Ba2Cd6Pb,18.3449,19.1287,0.7838
ErTm2TlO,27.1732,30.8751,3.7019
LiTaSb2,31.744,29.7638,-1.9801
TcSeN2O,30.1964,25.0253,-5.1711
RbNiBi3,36.2574,36.2826,0.0251
NaSm(MgH4)2,6.3219,6.2156,-0.1063
Ac3Zn2Pd9Pt,30.1325,29.3977,-0.7348
Ta2BeAg,29.1802,29.8345,0.6543
Pu2HfCd6,44.7205,41.1251,-3.5954
GaTcNO2,33.8608,27.6929,-6.168
SiP2C,19.8812,14.5165,-5.3647
ZrAuSe4,56.792,47.7772,-9.0148
Ta2BeAg,29.3951,29.8345,0.4394
Ca4In2C,17.1993,15.5246,-1.6747
SbAuC3,57.7268,43.2569,-14.4698
Hf2RuW,85.6194,65.0174,-20.602
VAgSb3,59.3451,47.4397,-11.9053
Cu2Mo2P,21.9861,14.1326,-7.8535
Co2ReSe,25.5539,25.4394,-0.1144
SmErLuPa,39.1888,42.2603,3.0714
SnRhPb,30.3195,29.0946,-1.2249
CsNb(SbO4)2,30.9344,26.7495,-4.1849
YPaZnIn,29.27,29.9308,0.6609
Rb(SeI)2,26.6165,22.5941,-4.0224
AgRuRh2,47.8084,36.9925,-10.8159
Sn(RhPb2)2,47.6167,43.9813,-3.6354
Co2ReSe,25.6741,25.4394,-0.2347
KBaBr2,10.4207,10.4383,0.0176
Ce6Tl2Cd,29.9412,31.533,1.5919
Th2CdIrPb,42.7625,47.8032,5.0407
Sn(PtRh)2,53.6678,40.0848,-13.583
LiLa2Br2,28.4009,22.3794,-6.0216
Cd(SnI3)2,21.5568,22.1407,0.5839
CsSrNb,50.4705,42.8684,-7.6021
SmTm2Al3,11.4025,15.8,4.3975
CoOs4W,78.4177,69.4683,-8.9494
CeYAgIr,28.0221,29.1168,1.0947
DyPa2NbN4,36.8933,35.0563,-1.837
VAg3Sb,54.6224,42.5924,-12.03
Ge2PPt2,34.896,26.7595,-8.1365
YTeIr2,35.5651,39.0625,3.4974
BeCuPb,25.8402,24.6286,-1.2115
Y(SbIr)2,37.8587,37.2355,-0.6232
BeCr2Cu,10.4952,8.8935,-1.6017
Zn4AgAu,18.135,17.9306,-0.2044
CeZn4Ag,14.5965,14.7052,0.1087
Ac8Ge3PtBr4,41.8715,40.9037,-0.9678
InRe2Au,36.9705,40.6337,3.6632
Ce2TmAu6,39.8075,41.584,1.7766
AlZn2In,7.5898,9.655,2.0652
Ce2TmHg6,8.3893,9.7417,1.3524
Zn(GeBi)2,24.0454,25.4245,1.3791
Nd3Ni,20.0957,22.9669,2.8712
Ba2SrW,22.6629,16.5175,-6.1454
AlZnIn,3.0651,6.6656,3.6004
Al3SeI,18.8411,14.9437,-3.8974
Rb2NaSr2,10.2315,9.5627,-0.6688
Cu2IrC,30.8954,27.711,-3.1844
Tm2ThRh2,37.4603,35.2917,-2.1686
TiPS2I,30.5392,26.8304,-3.7088
SrTe2NO,32.113,28.7216,-3.3914
Ce2Pt2Rh,33.2886,24.2788,-9.0097
Al3Zn3In,5.8782,7.1138,1.2356
Er2Tl2Rh,41.4483,40.8785,-0.5698
AsPCl4,12.1155,10.892,-1.2235
Ce6HoPa2,35.2547,36.925,1.6703
ZnTc2Pb,62.0726,54.6425,-7.4301
ZnTcW,21.9818,25.3456,3.3639
Pa2NbAlN6,27.2693,26.3752,-0.8941
ZnTcPb,51.9967,46.9834,-5.0133
ZnTc2W,58.0583,52.4513,-5.607
ScAgN2O,59.9889,51.6558,-8.3331
Zn2TcPb,40.5442,37.5692,-2.975
Zn2TcW,36.9105,35.7295,-1.181
Th2CuRu,39.1403,41.7013,2.5609
Zr2OsBr,62.681,56.2949,-6.3861
Ti3SbRu,15.3555,16.0032,0.6477
TcPbW2,56.2819,55.6663,-0.6156
YPC,36.5479,27.3699,-9.1779
Hf(PW)2,128.1102,104.0059,-24.1043
TaCuSi,20.755,21.7302,0.9752
KCr2P,26.3836,23.3341,-3.0495
Ac2InSi3Pt4,54.185,42.7021,-11.4829
AcInPtI,43.5048,41.6116,-1.8932
Si2Os2N,32.6298,29.0588,-3.571
Te3Se,44.0148,38.3655,-5.6493
TcPb2Se,57.7067,52.4769,-5.2298
Pm2NdTl3,33.4451,37.0021,3.557
TcPbSe,65.6549,57.5762,-8.0788
CeThZn4,19.9781,22.082,2.1039
Sr2La2Ir,33.6768,25.7679,-7.9088
Fe2SbPb,37.0182,31.8938,-5.1244
Zn2Sn2Bi,19.6111,21.0904,1.4793
CeTmZn4,14.0374,15.8837,1.8463
Zr2OsBr,62.1641,56.2949,-5.8693
YHo3Tm,20.9536,26.8444,5.8907
I3O8,13.4657,10.2316,-3.2341
SbPbSe2,48.3083,43.0158,-5.2925
Ac2PrPtO5,18.2472,15.7156,-2.5316
LiMnIr2,46.6696,44.1411,-2.5286
Fe4PbSe,22.0499,18.5362,-3.5137
Y3Mo5N8,31.8326,28.685,-3.1476
Li4YP2,9.0404,6.0889,-2.9515
LiYZr2,53.1203,46.4277,-6.6926
LiMnIr2,46.546,44.1411,-2.4049
TiINO2,19.4736,16.768,-2.7057
Li2TbY,10.4925,12.6846,2.1921
LiYZr,37.6908,34.651,-3.0398
TaCo2Se,45.5585,34.7697,-10.7888
Li2SiRu,14.5027,13.0552,-1.4475
ZnIn4Ga,15.9373,17.0059,1.0685
NaTa3Be,30.2689,30.7802,0.5113
Cd3AgSb,27.1357,24.6661,-2.4696
SiTcNiRh,25.8357,33.1665,7.3308
Ca2AcTb,25.5507,27.7547,2.204
Ru3AuN,42.0376,39.3569,-2.6807
TaBeV,63.6465,57.957,-5.6894
Tl2PtBr,51.1873,45.5331,-5.6541
CePu4Ge2Pd,43.329,44.8058,1.4768
SnBi2Os,43.6767,45.9525,2.2758
CaAc2Pt,50.7077,46.3709,-4.3368
LiNdDyAg,20.8891,21.3036,0.4146
TlPtBr3,36.3413,30.4953,-5.8459
TlPt3Br,67.6665,51.5382,-16.1283
HfNb2PtN,102.5915,79.5752,-23.0163
ZrNb2CdN,79.7979,65.6918,-14.106
GdPaAs,35.0916,38.0675,2.9759
SrAlAu2,27.6875,28.8168,1.1293
ScCd3Re,45.6392,37.6298,-8.0094
CaTmMg,12.8557,14.8754,2.0197
SrTlNi2,23.2992,23.2477,-0.0515
LiSi3Ru,19.4942,14.208,-5.2862
NbSiPb,63.3215,54.9957,-8.3258
Cd2GaRe,51.7178,42.2607,-9.4571
LiSiRu,19.5301,9.2943,-10.2358
Li2SiRu,10.3995,13.0552,2.6557
FeRuW2,31.7401,31.0674,-0.6727
Li2ScTe,13.4921,12.9652,-0.5269
Ta2PW,86.1769,79.1499,-7.027
V2AgSb2,70.2736,54.9789,-15.2947
CaAc2PtO5,25.7368,23.8125,-1.9242
GaFe3Pb,22.9741,18.0411,-4.933
CuRuN2O,25.4544,22.6456,-2.8088
Cs4CoO5,10.0524,11.2557,1.2033
NaAgBi3,44.2377,42.4688,-1.7689
GeRuN2O,26.0854,23.8612,-2.2243
NbInN,46.2996,39.7985,-6.5011
LiHo2Ta,24.0537,27.3571,3.3033
YV3C,102.7928,77.7854,-25.0074
Er2InSn2,10.0612,13.9519,3.8907
NaNbPdBr2,42.3923,33.8774,-8.5149
Cd(InCl3)2,5.517,6.3612,0.8442
Fe2Te3Pb,28.2542,26.2843,-1.9699
RuRhNO2,33.5853,27.7863,-5.799
Ba2NaPuO5,1.3126,2.9349,1.6223
Zn(CoCl3)2,3.7182,2.514,-1.2042
Tl(CoCl3)2,5.6529,5.9705,0.3176
Sr(CoCl3)2,4.1187,4.3197,0.201
ScTa3Sn,72.0418,63.4205,-8.6213
TaSnPt2,58.7103,48.6132,-10.0971
La3ErIr,45.3827,37.4702,-7.9126
Dy4B5C2,28.7806,25.8405,-2.9401
ErCrO4F,0.3822,2.0324,1.6502
Pm6Nd2Y3In,22.2305,22.8479,0.6174
Ca2PuCl6,9.8694,12.0516,2.1822
MgTlTe2,34.0751,33.2872,-0.788
PrHfNO2,22.5409,14.1314,-8.4094
CeY2(HoBi2)3,37.9196,39.6297,1.7102
FeTePb2,39.5239,38.0651,-1.4588
Zr5FeTc4,85.9507,72.696,-13.2547
LiSbN2O,22.8026,20.5528,-2.2498
Pr2Sc3Rh2,14.2834,12.0472,-2.2361
InFe2Sb,29.3459,23.0049,-6.341
Ac2Cu2Pt5Au,57.4239,46.7898,-10.634
NbV2ZnN,88.9623,69.9241,-19.0382
Li2ScTl,14.9162,16.3937,1.4775
Co2PtCl6,9.7934,7.6909,-2.1026
Co2PdCl6,2.9072,3.1998,0.2926
Co2SnCl6,1.9026,2.6273,0.7246
Cd(ReOs)2,50.8642,49.036,-1.8283
Na3U(AgSe3)2,40.437,33.1131,-7.3238
CuSiW,21.645,22.9758,1.3308
ScSb2W,35.1888,31.773,-3.4157
PaCuTc2,64.9783,58.974,-6.0044
CuSiW,22.1108,22.9758,0.865
Zr2Fe2Tc,57.9635,50.2817,-7.6818
IrPbBr,46.9744,45.0118,-1.9625
Co2WSe,26.0906,25.17,-0.9206
CuSiW2,25.8784,27.3782,1.4998
HfMo,27.144,26.7409,-0.4031
TbGe4Pb,19.2469,20.7313,1.4845
Fe2CoCl6,4.8049,3.8898,-0.9152
SrTaTc2,60.3481,49.0861,-11.262
ErZrIr2,52.842,52.0725,-0.7696
Ir2PbBr,46.0329,45.3842,-0.6487
Ac2La2Zn3,36.3209,34.261,-2.06
SrHf2Pd,74.2632,54.7214,-19.5418
CuSiW2,25.6961,27.3782,1.6821
EuEr2Fe,21.8044,24.5696,2.7652
Ga(CuCl3)2,2.3238,2.4456,0.1219
LiTa2Cr,46.5298,38.4234,-8.1064
KY2Sc,11.6759,13.4063,1.7304
In3PF,14.2507,14.8466,0.5959
In(CuCl3)2,3.3004,3.4025,0.102
CdSb2Mo,31.3458,29.4666,-1.8792
Ac2InGe3Pt4,52.5734,43.3125,-9.2609
ScSb2W,35.263,31.773,-3.4899
MnInAg2,45.5925,37.6603,-7.9322
Ba2NaIn3Sn4,16.355,16.7699,0.415
CsLi2SmBr6,17.7146,17.9971,0.2825
Tl(ZnMo)2,14.8011,18.6956,3.8945
CsLi2TbBr6,17.8772,17.8008,-0.0764
KCu2HgI6,13.6205,14.1376,0.5171
Cs3ZrCu,36.7789,33.4212,-3.3577
MnIn2Ag,42.7895,36.688,-6.1015
NaAc2BiO5,14.733,17.3822,2.6492
PPb3C,46.135,41.5059,-4.6292
TmSc3Mn,29.1914,26.8363,-2.3551
Mn2InAg,62.6585,51.5854,-11.0731
Zr6Pd3O2,67.6562,58.7799,-8.8763
U(GaCl3)2,6.6221,8.5282,1.906
Ir(RuW)2,46.1433,42.2252,-3.9181
Ga2SnCl6,2.7073,4.5189,1.8115
TlCuNO2,12.5617,13.4634,0.9017
InFeP3,20.959,18.3295,-2.6295
TeI2,27.214,27.7607,0.5467
SiPt3C,70.3148,48.8804,-21.4344
TmCu2H8Au,12.2607,11.8922,-0.3685
Ca2TcI,31.7917,28.1778,-3.6139
KBi2W,35.8919,38.8621,2.9702
Pu2GaCl6,18.1864,19.1593,0.9729
Li3YZr,23.6808,21.073,-2.6079
Er(Tm3Sc2)2,21.5483,23.0324,1.4841
Rb3CaTc,22.078,17.52,-4.558
Y2Zn(Ni4P)3,30.9642,26.5378,-4.4264
LuSiRu,25.2049,23.1938,-2.0111
SbOs5,42.6312,46.2045,3.5733
CaYMo4,22.0726,19.6348,-2.4378
LiZrSb2,41.9381,37.6015,-4.3366
SiPdRu,20.4772,17.8409,-2.6363
Th(ICl3)2,14.1368,16.5815,2.4446
Sm2Er3Mg,23.8438,26.1879,2.3442
SiPbBr2,30.0789,26.5286,-3.5503
Si2PbBr8,18.037,16.858,-1.1791
Pm2SbSe,34.4461,32.3818,-2.0643
Si2PbBr,31.4944,26.3024,-5.192
SrZrNi2,35.2488,31.8783,-3.3705
Nb4ZnGe,89.112,71.9365,-17.1754
SiPb2Br,40.5519,37.2084,-3.3434
CsRbBi4,40.5205,41.1665,0.646
Sr9(CrN4)2,10.5541,10.1808,-0.3733
NaPrTh,28.7958,29.8306,1.0348
ThCuP2,17.1996,18.9882,1.7885
Nb(TeAu)2,60.1267,53.8398,-6.2869
BaY4Te,32.9124,30.5189,-2.3935
Pu2InCl6,19.393,20.0147,0.6218
ScAs2,19.4221,17.2474,-2.1748
LiZrN2O,32.9762,29.5662,-3.4099
ZrTe2W,55.1447,50.7418,-4.4029
Cs2Rb2Ba,9.6501,9.8231,0.173
Sr3Cd5Br12,6.3344,5.9661,-0.3684
SrZrNi2,35.5626,31.8783,-3.6842
NaAc2CdO5,11.4044,13.8175,2.4131
ZrTe2W,55.761,50.7418,-5.0192
SrLi3Pb,5.953,8.6339,2.6809
LiInRh2Au,34.5413,28.5574,-5.984
Zn6Sb,13.4818,12.9893,-0.4926
CaSi2Pb,26.8195,23.3094,-3.5101
LiInP,15.1002,15.2416,0.1415
KSr2Re,26.4756,20.4038,-6.0718
TlRe3Sn,40.9662,42.4806,1.5144
HoThSeN,27.0653,30.11,3.0448
LiY3,10.7004,12.9156,2.2152
GdTlNiAg,30.5658,29.4953,-1.0705
KTeP2,15.438,14.4486,-0.9894
VBRu,21.8199,23.2697,1.4498
Re2PNO,88.0964,75.5742,-12.5221
LiCeInIr,22.9229,24.366,1.4431
Be2MoPb,21.7933,19.8974,-1.8958
DyB3C,26.6283,23.0243,-3.604
Be2MoPb,21.5972,19.8974,-1.6997
KOsW,116.68,94.1079,-22.572
Zn3GaSn,10.7804,11.7049,0.9244
KOs2W,98.6036,82.7908,-15.8128
AcTb2Sb,40.263,41.1549,0.8918
YHf2Ag,83.5261,61.5093,-22.0169
CaScNO2,70.5071,61.0656,-9.4415
ScBeSi3,32.612,25.1564,-7.4556
GaSeI3,25.155,23.5684,-1.5866
Mg2SiRu,12.3067,10.6551,-1.6517
CaSbNO2,34.3574,31.1338,-3.2236
KSi2Os,21.0966,19.4677,-1.6289
Fe4HgW,11.5816,11.7208,0.1392
FeHgW3,28.9255,29.9638,1.0383
Na2BF6,5.2668,5.3022,0.0353
Cd2ReSb,60.6305,49.156,-11.4744
Pr2AgSn,15.7084,14.1695,-1.5389
Sn2Au2Se,33.182,32.7,-0.482
SrCdCo2,14.4095,13.3814,-1.0281
Hg2W,9.6008,12.7544,3.1536
LiInRh,24.6602,19.3819,-5.2783
Y5Cu5P8,19.8487,13.414,-6.4347
Ac2TbSb,50.2411,50.9996,0.7585
Y2ReP6,9.8026,6.0478,-3.7547
Sr4MnN4,10.6685,8.9636,-1.7049
Si3PdRu,19.9218,14.27,-5.6518
SrNdSn6,19.8705,21.0422,1.1716
GdZrGa2,35.6722,33.5832,-2.089
AcTbSb2,44.3795,42.6975,-1.682
LuI4,21.1878,23.5289,2.3411
Ba2LiBr,11.8099,11.3006,-0.5094
NaErTi2O6,5.9314,6.363,0.4316
Sr2PmCl6,9.48,9.412,-0.068
LiNd(InAg2)2,24.1205,21.0955,-3.025
CaGdSiHg,16.8216,15.0006,-1.8209
MnRh3C,61.4527,44.8371,-16.6156
LiYC,31.3381,27.456,-3.8822
Cs2As2Pd2Pt,27.2539,25.072,-2.1819
CrWI2,19.4162,19.8568,0.4407
Li2InFeIr,28.0539,25.0376,-3.0163
TlTc2,71.9233,66.521,-5.4023
HfZn6,27.7924,22.0636,-5.7288
Sr2NbAl,40.6031,35.28,-5.3231
SiTcNiRh,33.0244,33.1665,0.1421
Cd2SbTe,31.4727,29.3936,-2.0792
SmMgZn,9.682,12.3748,2.6928
CsLaPbO3,23.8731,23.3516,-0.5215
ZrTaAl2,34.9977,34.5337,-0.4641
InFe4W,12.9034,12.9847,0.0812
Ce2PdBr8,13.2986,14.6971,1.3985
Zr2TaAl,58.9224,53.388,-5.5344
AcTa(PtO4)2,23.2243,20.1042,-3.1201
Dy(BRu)3,8.4227,7.1714,-1.2513
TcC,31.2745,23.9143,-7.3602
Tl8In2Pb,45.448,46.0534,0.6054
NdMg2InH6,7.2389,8.28,1.0411
In4HIr2,23.7261,25.8422,2.1161
NbSiPb3,64.102,56.55,-7.552
SrMgPRh,12.4458,12.0033,-0.4425
Tb4MnH2,24.9167,23.606,-1.3107
NbCu3Si,37.8198,30.3306,-7.4891
Cd2SbW,31.0625,30.9327,-0.1298
Li2CdSe,16.7227,15.3896,-1.3331
InHIr2,27.5376,30.0026,2.465
Cd(SnBi)2,30.9124,32.4402,1.5278
Nb2Cu2Si,56.3514,45.7214,-10.63
Pt4W5,60.986,52.8957,-8.0902
Ti6H5Pd2,4.6704,6.0032,1.3328
CdCoAu4,36.7588,37.5829,0.8241
Cd(SnBi)2,34.1482,32.4402,-1.708
TaCd2Ir,29.8178,33.1848,3.367
SrCo2Ir,22.3231,20.6759,-1.6472
SrLaCo2,19.6304,17.7641,-1.8663
NdThCuNi,37.3568,36.38,-0.9768
Er2Hg2Ru,14.4276,17.2271,2.7995
Ca2AcPtO5,36.2032,31.646,-4.5572
Fe2HgSb,27.4909,21.5051,-5.9858
LiCe(In2Ag)2,21.3193,20.2734,-1.046
NiRuNO2,25.5239,22.572,-2.9518
Ba2P4Pd5,11.4048,11.276,-0.1288
TlRe2Tc,56.9315,55.452,-1.4795
TaCd2Os,29.564,32.42,2.8559
LiHo(InAg2)2,24.5722,21.5544,-3.0178