Formula,E_hull_DFT (eV/atom),E_hull_ML (eV/atom),Delta (ML - DFT)
PaInRu,26.448,30.7117,4.2637
TlInAs2,22.9194,23.943,1.0236
Sm3(SeS)2,38.7555,33.0339,-5.7217
Ni2AgSbP,26.2166,21.4273,-4.7893
Y2MgHg,25.8322,21.7297,-4.1025
Na2PaPbO5,17.328,17.1434,-0.1846
LiAl2O,12.7074,15.0347,2.3273
Cs(KHg)2,8.539,8.4653,-0.0737
TcTe4Rh,46.061,40.713,-5.348
Sm2AuO2,17.9632,19.3348,1.3716
TaCrIn,56.0435,42.3633,-13.6801
Re2NiOsRh,52.8281,41.7576,-11.0704
AcH2Pt,37.8322,33.7832,-4.049
Zr(TlCu)2,38.7618,37.4409,-1.3209
Pr3(TeS)2,24.5662,20.8045,-3.7616
Sm5PS4,33.961,30.5042,-3.4568
Ca2InOs,18.179,20.235,2.0559
Tb3(TeS)2,38.0134,34.2577,-3.7556
CaInOs2,27.759,27.488,-0.2709
Ce2NdAl6,10.2209,12.0957,1.8748
Hf2TlCrAu,79.6445,62.1341,-17.5104
SrTePd2,17.7244,20.19,2.4656
Ca2InOs,18.0877,20.235,2.1472
ScCd2Tc,71.7535,60.9317,-10.8218
Ce(PmAl3)2,9.8095,12.1497,2.3401
Tb(CeAl3)2,10.0441,12.3233,2.2792
NaSmSn,23.1323,23.5402,0.4078
Tm2SnO2,52.0035,44.196,-7.8075
PrMnPt4,74.7959,55.2188,-19.5772
LaSbOs,46.4265,41.4301,-4.9964
TiPb3F,34.2397,35.2613,1.0216
ZnInPbO4,18.0338,17.1843,-0.8495
Ba2Au2S3,36.7353,30.577,-6.1583
LaOs2Rh,46.4744,42.0063,-4.4681
CuSn2P,31.4916,28.9535,-2.5381
Pr6Sn2Ir,0.2024,2.6257,2.4232
ZnGeOsO2,23.8972,20.7573,-3.1399
AlClF2,19.3829,17.5242,-1.8587
ScCd2Tc,71.7693,60.9317,-10.8376
ZnOs2O,38.4347,35.8971,-2.5376
CuSn2P3,24.8395,23.0089,-1.8306
TlTc2Te,70.5223,61.9611,-8.5612
Ga(SiAg)2,20.4527,15.8224,-4.6303
NaTmGaSn,20.8222,21.6413,0.8191
AgBiPtRh,56.19,45.8508,-10.3391
K(BaGe)2,2.8295,4.6707,1.8412
GaSiAg,14.7862,12.2437,-2.5424
HfScS2N,50.4533,38.9561,-11.4972
ZnMoOs,27.1133,26.249,-0.8643
Y3NiHg3Pd2,39.7511,34.5635,-5.1877
TlIn2As,25.2472,26.4002,1.1531
LiCl,5.1489,9.5714,4.4224
Y2Mg2Hg,21.0821,18.1707,-2.9114
Ba(YHg)2,28.9541,24.9752,-3.9789
NaSn2Mo,32.4432,24.2739,-8.1693
CaZn3,8.3492,8.1161,-0.233
Tl2InAs,33.0105,34.1227,1.1122
Na2Sn4Pt5,52.2859,40.1891,-12.0967
Na2PuPtO5,16.039,14.967,-1.072
YMgHg6,6.6279,5.6778,-0.9501
NaSmTmSn,25.0021,26.1045,1.1024
Tc2TeW,67.1077,59.7069,-7.4008
PuSbAs2,33.9209,33.4565,-0.4643
Na3HfSn,49.0365,37.1354,-11.9011
Tl2In2S3,44.2303,37.9942,-6.2361
NaTmSn2,23.8035,24.7221,0.9186
ScSe2I,30.9043,27.1645,-3.7397
NaSn4Bi,27.0646,27.05,-0.0146
Y3MgHg4,18.8589,15.6958,-3.1631
NaSnBr3,15.116,14.3064,-0.8096
Na2SnBr,20.1224,18.5849,-1.5375
Na2SnMo,34.4387,25.548,-8.8907
LaZrBr2,42.5619,35.4073,-7.1545
LaZr2Br,64.9067,55.5804,-9.3263
Gd2SiI,23.2023,23.955,0.7527
Cs2KNpOF5,14.819,15.564,0.745
PRuSe,16.1331,17.2436,1.1105
LaZr2Br,65.0388,55.5804,-9.4583
LaZrBr,54.4873,44.2851,-10.2022
NaNbSn3,46.9868,40.219,-6.7678
Nb(GaI)2,37.9944,32.2881,-5.7063
YGa2Ru2C,27.7642,23.7964,-3.9678
NaTa2Sn,30.5441,32.4583,1.9142
Ca2NdYHg4,7.4269,7.47,0.0431
Na2SnBr2,15.247,13.7951,-1.4519
CdNi2,3.7377,5.7124,1.9747
Na3SnTe,27.4568,24.255,-3.2017
LaZrPb,67.4493,59.9366,-7.5126
La2ZrBr,52.9797,42.9018,-10.0779
AlC,13.2079,10.191,-3.017
Tl3SbRu,44.0222,42.6255,-1.3967
NaCd2GePt,32.2269,26.798,-5.4289
Na3(SnAs2)2,17.032,16.1554,-0.8766
LaZrPb2,63.6168,57.2767,-6.3401
Cr2SiAg,16.4631,13.5361,-2.927
La2ZrPb,63.4359,53.4411,-9.9948
LaZrBr,53.7407,44.2851,-9.4556
ZrMoF3,27.7768,24.1374,-3.6394
Li2Al,2.5245,3.4619,0.9374
CeYHgOs,28.9718,28.8545,-0.1172
LaZrPb2,63.4742,57.2767,-6.1976
NdLuRu,24.5591,28.0723,3.5132
NaAgSe2Br,32.7069,25.7518,-6.9551
NaSn2Pb,26.2065,27.5589,1.3524
IrOsI2,34.3981,35.8253,1.4272
Na2CuSn,41.9842,35.3044,-6.6797
Y4HgTe5,32.8441,30.4345,-2.4096
NaTl2InI,33.8091,33.2722,-0.5369
InRu5I2,25.2062,24.3129,-0.8932
ZrReTc2,80.8503,70.8474,-10.003
LaZrPb2,63.5871,57.2767,-6.3104
KSb3Rh,39.1793,31.5124,-7.6669
DyFeB,9.1352,12.7602,3.625
Li2TaMo,13.5999,16.3629,2.7631
LaZrBr2,42.63,35.4073,-7.2227
Na5(CdSn)3,22.0934,20.456,-1.6374
SrPmSm2,22.3038,24.7167,2.4128
Li2Cl,3.2886,6.7873,3.4987
LaCo2Ir,27.0365,25.7961,-1.2404
Pr3URu4,35.4674,34.8139,-0.6535
NaSn3C,31.4108,26.4307,-4.9801
ZrReNi6,10.3241,6.9385,-3.3856
AcTiSb2,39.5141,37.5987,-1.9155
TlNi6Rh,1.0223,3.8989,2.8766
Ni6AgRh,0.0,0.3959,0.3959
ZrNi6Mo,6.6968,6.9749,0.2781
TaSiSe,33.5811,31.018,-2.5631
TlInNi6,0.0,2.9568,2.9568
Ni6HgMo,0.0,0.3632,0.3632
SrYNi6,12.8812,12.3034,-0.5778
KN2F11,4.7203,4.6444,-0.0759
Na2SnBi2,32.6726,32.475,-0.1976
MoRh2Pb,41.57,36.6207,-4.9493
NaU2Br11,15.1521,15.3903,0.2381
Cr2SiAg,16.4425,13.5361,-2.9064
Cr2SiAg,16.648,13.5361,-3.1119
OsRuCl3,15.3947,15.855,0.4604
Na3SnN,26.5908,21.5262,-5.0646
Tc3RuC,75.7877,60.0332,-15.7545
Sc3PaP4,43.5709,35.5897,-7.9812
HfNb2Hg,106.7286,81.9665,-24.7621
Zr2BeSbMo,54.7952,45.2196,-9.5756
SrSbRh2,38.5768,31.0469,-7.5299
CeSnPd3,16.2854,16.7634,0.478
Dy2ThAl6,14.9576,17.5656,2.608
Cr2SiAs,21.1117,18.0153,-3.0964
Ge2(PbAu2)3,41.8147,42.7736,0.9589
NaSnRu2,19.8417,21.1556,1.3139
Nd2Sm7Y3,22.2591,23.9963,1.7372
U4TcRu,63.7998,63.8184,0.0186
RbCrGa2,0.0,1.0854,1.0854
Cr2SiAu,20.4788,19.6419,-0.8369
Te8WAu2,42.856,41.3619,-1.4941
Sr2Cd3AgSn4,21.5739,19.7786,-1.7952
Cr2SiAu,20.3362,19.6419,-0.6943
Ac2Al4InHg3,15.7635,16.8128,1.0493
TeWAu2,44.3564,45.2759,0.9196
ScCl3,14.3325,15.5274,1.1949
NaHfSn2,48.3091,38.883,-9.4261
TeWAu2,44.3208,45.2759,0.9552
SiIrN,0.772,2.7336,1.9615
CsNaSnSb2,28.4448,26.0842,-2.3605
NaSn2SbIr,31.5625,29.8012,-1.7614
NaTiSn2Sb,31.2802,25.2383,-6.0419
PmNdSb2,33.9243,32.9461,-0.9782
EuScTl,27.8952,29.9133,2.018
Al2OsSe,24.0587,23.4719,-0.5868
Pb2Br2O,32.5017,29.6757,-2.826
LiPm(MgPd2)2,12.0241,14.2827,2.2587
Sm4TcAu,33.9995,34.7273,0.7278
Sm6Hg3N,11.3097,12.3976,1.0879
NaYHgAu2,34.2452,31.7363,-2.5089
DyPa3(MnN3)4,31.2588,28.5395,-2.7193
I2(OF2)3,10.1097,9.3393,-0.7704
Cr2SiAu,20.54,19.6419,-0.8981
Be2NiBr,1.7761,3.9274,2.1514
Be3ReTe,17.4668,18.2322,0.7655
Al2OsSe,23.8793,23.4719,-0.4074
BRuPt3,59.2136,43.6314,-15.5822
NaTa2Sn,24.6018,32.4583,7.8565
Be2ReTe,21.014,23.3899,2.3759
BeRe2Te,23.9913,28.0675,4.0762
TaGa2Sb,40.5862,34.9585,-5.6277
Te2IrI,33.9557,37.4271,3.4714
Cr2SiAu,20.4491,19.6419,-0.8072
YNiHg2B,41.3475,35.1701,-6.1774
BaCr2Si,16.9242,14.9165,-2.0077
Hg2PIr,15.8468,14.5171,-1.3297
LaPt2Rh,69.4358,50.0111,-19.4246
MnFe3I,33.2458,28.1729,-5.0729
NaCdSn3,21.1703,21.0729,-0.0973
Ac2SmEu,45.6337,47.017,1.3834
Rb2Se2S3,38.1707,27.8996,-10.271
NaCaRu2,0.4604,3.3365,2.8761
Na2SnBr,17.3733,18.5849,1.2115
NaLi2SnRu,13.5556,13.1798,-0.3758
Na2CuSnBr,35.7418,30.0103,-5.7314
NaCaSnPb,25.3835,25.5608,0.1773
NaSn3Pb,28.41,28.0024,-0.4076
Tb2YErHg2,17.9184,18.3598,0.4414
FeCoAsRu,31.3942,26.4996,-4.8946
Cr2CoNi2,23.6784,20.2805,-3.3979
Tb2PrYHg2,12.2251,12.5893,0.3642
Ac2Cu3Ge4Pt,27.0005,25.6194,-1.3811
Tm2HfCu,52.8683,44.4525,-8.4159
Ac2InSb4Pd3,38.1264,35.6404,-2.4861
Ac(ErGa)2,23.396,26.5952,3.1992
YZnNiHg,43.207,38.889,-4.3181
AcTlIO,45.0805,44.9732,-0.1073
Ac2PuGe3Pt4,57.8047,48.7211,-9.0836
RbZrGa,32.1515,30.0209,-2.1306
CdCo2Ag,16.0244,16.5616,0.5372
Ta2TePt,51.2678,47.1016,-4.1662
Al2Zn2Pb,12.35,14.5927,2.2427
TaTePt2,64.435,52.7222,-11.7129
Sn3HgTe,21.3961,21.0649,-0.3312
Hg2Te2Pb,27.2855,26.8611,-0.4245
Ta2SiBr,25.131,27.9831,2.8521
Pr2MnIr9,39.9401,40.6755,0.7355
Mo2PF,16.1683,12.5424,-3.6258
SrGaPb2,31.6176,33.2879,1.6703
Y3Ga3Rh,10.9157,11.4384,0.5228
CsSrTa,24.9528,20.2271,-4.7257
CsZrTa2,50.693,48.8795,-1.8135
CsYHgSe3,31.1174,25.3142,-5.8032
Cr2ReI,14.2943,16.2853,1.991
Pr3(ReC2)2,35.0145,27.2114,-7.8031
NdYHgAu,29.9749,29.1769,-0.7981
K2YC,30.9102,26.1904,-4.7198
AgAs2Os,23.577,24.1449,0.568
CoTeI2Cl,20.8658,20.5404,-0.3254
YZr4Hg5,44.0534,37.7291,-6.3243
BeOsRh2,35.009,30.1386,-4.8704
Hf3Os5N12,25.2494,15.5394,-9.71
Pb2OF2,7.8828,12.6153,4.7324
Er4TcTe,24.0615,25.8449,1.7835
Bi2Rh3S2,46.686,36.968,-9.718
Tl2InAs,32.9881,34.1227,1.1346
Ac2ScCrSe6,38.7633,33.7469,-5.0163
CaY2Si,26.8142,23.4496,-3.3646
Sb2AsAu,32.8478,31.2326,-1.6151
AgAsOs2,31.9435,33.7888,1.8453
Na2TlInF,24.8758,23.609,-1.2669
CrNi2W,27.4377,26.6961,-0.7416
Na3Np2TlTe6,42.4102,40.6421,-1.7681
TmPu(ScTe2)2,35.9922,34.5213,-1.4709
SbAsAu2,37.4558,36.8453,-0.6106
Cs2RbCeNb2O8,24.259,20.1413,-4.1177
SiTcSb3,49.6828,40.1332,-9.5497
SbAsAu,34.2015,33.8222,-0.3793
Ag2AsOs,29.0438,27.4695,-1.5743
LaFe2Cu,33.7422,26.6286,-7.1135
Sb2AsAu,37.0438,31.2326,-5.8112
NdGaPdPt,36.9787,31.5589,-5.4197
Pt2Se,75.9353,56.8246,-19.1106
DyPaNb,71.1449,66.5214,-4.6235
Zn(InI)2,18.5603,18.8791,0.3188
YMg2BeHg,11.2581,10.1772,-1.0809
AgBiWC2,79.0501,59.0846,-19.9655
CaY(CdHg2)2,11.2583,10.6803,-0.578
MoP2WO,71.6251,58.7479,-12.8772
La2Pr2O,30.1156,25.0664,-5.0492
Ca4ErTl2,21.5489,22.9509,1.402
Cs2GeSbF6,16.4891,16.0836,-0.4055
Zr3Co3Sn3H,37.0728,33.844,-3.2288
LiAc2HPt6,66.284,51.1706,-15.1133
YMgHgBi,26.6502,25.5923,-1.0578
Nb2GaI,73.6252,60.923,-12.7022
La2NdAl6,16.1353,14.3524,-1.7829
NbGaI,52.6376,45.9854,-6.6522
Sc2AgPd2,15.4748,13.6006,-1.8742
SrTcTe,49.3766,43.4809,-5.8957
CoAsSe,41.1728,39.4114,-1.7614
TbScRe4,46.3029,43.9335,-2.3694
Eu2TcPd,41.9267,39.0732,-2.8535
Y2MgHg2,17.3775,15.099,-2.2785
La(PrAl3)2,7.4112,6.5445,-0.8668
SmY2Hg3,16.876,15.1682,-1.7078
Np3(SeS)2,58.7791,54.5491,-4.2299
InMo3P,23.2164,20.4972,-2.7192
LaY2MgHg4,18.9976,15.579,-3.4185
AgHgOs2,29.0368,30.2234,1.1866
Pm2NdAl6,10.1416,11.9338,1.7922
CaYHgAu,25.0563,24.1062,-0.9501
Cs7Rb5O6,9.3987,9.8178,0.4191
LiCuO2,12.1713,11.9133,-0.258
YNiHg2Rh,43.3847,36.3475,-7.0371
Tc2Ge2Br,37.2436,32.8777,-4.3659
YZnHg2S,22.7855,17.7448,-5.0407
SiC,1.832,1.6102,-0.2218
Be2CdPb,20.4247,20.5749,0.1502
MgRhI3,24.1224,21.394,-2.7284
LiTb2V,45.8229,40.2332,-5.5897
MnTl3Si,54.1048,49.0422,-5.0626
BeCd2Pb,24.0807,24.2328,0.1522
Np2NbAl6,33.1858,32.0349,-1.1509
Cd2FePb2,31.161,31.0204,-0.1406
PrAsIr,0.0,2.288,2.288
IrIBr2,20.0308,24.1551,4.1243
Nd2Se2O,20.2277,19.1441,-1.0836
CsYMg2Hg,16.5535,14.7673,-1.7862
BaNdTe4,26.7097,27.1892,0.4795
GdBiRh2,45.0788,39.604,-5.4748
YMg2HgCl,32.976,31.3918,-1.5842
Ba3AgRu,10.6407,9.4525,-1.1882
NaGdBi,35.888,36.0928,0.2048
Y(GaRh)3,21.1947,16.3419,-4.8528
Nd(TmAl3)2,11.4576,13.4537,1.9961
Eu2GaBi,29.2917,30.9257,1.634
AcBiHPt,51.433,46.9495,-4.4836
TlSe2I,40.2453,36.4249,-3.8204
RbLiTe2,23.3188,21.2853,-2.0335
Y4Hg5Pb,25.015,21.8127,-3.2023
RbLiTe2I,23.8689,21.8477,-2.0212
Tb2Er2Tm3,25.0705,27.9008,2.8303
BaCaRe3,37.2005,33.5397,-3.6609
Fe2SnHgPb,22.2906,19.8637,-2.4269
TlTe4Au,44.3932,42.752,-1.6412
Co2Cu,21.3749,20.4754,-0.8995
AcBi(H4Pt)2,24.8491,21.6999,-3.1492
Ce2TaAl6,11.3764,13.4306,2.0541
Ba3HfCr,35.182,25.2694,-9.9126
BeSbCl3,12.3824,10.2752,-2.1072
K2AlTe,17.2053,16.1132,-1.0921
YMgHg3,11.0859,9.0893,-1.9966
FeHg2Pb,19.1988,17.7344,-1.4644
Dy8IrPd2,26.5898,28.3245,1.7346
BaZn2Pb,16.8724,18.2367,1.3643
Fe3CI,17.3532,14.1934,-3.1598
BaTlTe4,35.978,35.0694,-0.9086
BaTmTe4,27.8872,28.2077,0.3204
Li2Ca2I,4.5922,5.6162,1.024
FeNiC,28.8143,17.8846,-10.9297
Si2Ag2As,25.3608,20.0125,-5.3483
ThCd5Ag3,28.4863,26.9451,-1.5412
TaCuSe2,36.0753,31.002,-5.0733
ZnTe2P,24.2028,24.1039,-0.099
SiAg2As,32.5112,26.6207,-5.8904
Er3Al3Cu2Pd,14.6378,15.4844,0.8466
Li(BC)3,38.0676,28.0284,-10.0392
Pu(PaAl3)2,24.6886,27.0556,2.367
CoReC2,55.6025,47.2869,-8.3156
Y2GaHgCl,44.2008,40.7119,-3.4889
EuTlGa,28.8247,30.4672,1.6424
TbYHgPb,31.9501,31.4686,-0.4815
AgAs2Os,23.5384,24.1449,0.6066
Na2AsIr,21.3484,20.9527,-0.3957
LaCeErSn,31.48,30.3737,-1.1062
LiBC,28.7111,23.2962,-5.4149
Na3TiP,21.8379,17.6739,-4.164
GdScCo2,18.7212,18.0942,-0.627
TaCuAg2,27.6923,25.6961,-1.9962
CsAcTe4,37.9175,38.5447,0.6272
Pr2NdAl6,4.4026,5.5082,1.1056
LaTlRh,50.1588,42.8247,-7.3341
Y2TlW,39.477,32.9068,-6.5702
Rb2SrTaI6,21.4314,19.4787,-1.9527
BC,29.6953,43.6636,13.9683
EuPtPb,56.1426,49.0468,-7.0959
Eu2PtPb,49.0467,43.9036,-5.143
Ta2CuAg,22.5745,26.4882,3.9137
EuPtPb2,48.7184,44.0857,-4.6327
TaCuAg2,27.8886,25.6961,-2.1925
Pm2EuBi,33.1556,35.839,2.6835
Ta2CuAg,29.1053,26.4882,-2.6171
CoSb2Pd,30.6336,26.828,-3.8056
AcErZr2,73.0188,67.2068,-5.812
LuSnSb2,35.6899,33.3093,-2.3806
KHf2SbP,70.7037,51.2331,-19.4706
KTeW2,27.9375,30.0608,2.1233
Ta2CuSe,33.0652,34.5441,1.4788
LaCo2Mo,19.9574,19.4868,-0.4706
LaMnN3,23.4921,17.2923,-6.1998
NdGa5PdPt2,33.4458,26.3207,-7.1252
Sb2P2C,28.7283,22.0265,-6.7017
Li2NiOs,12.5318,14.8073,2.2754
Gd2CoPt2,53.1418,42.6271,-10.5147
AcAl2H7Pt,14.4611,12.5628,-1.8983
Tb3Sm2Y7,19.0559,20.7731,1.7172
Sc2CrRe,37.2943,30.4058,-6.8885
AcHo2As,32.3304,35.132,2.8016
Li2NiOs,12.451,14.8073,2.3563
Li2NiOs,12.359,14.8073,2.4483
CaBe,11.3005,6.9463,-4.3542
LiTcBr2,38.4889,32.3936,-6.0952
Pa2Os2Pt,61.1341,59.0443,-2.0897
CsBaTmWO6,9.929,11.424,1.495
Mn2In4Te,46.4279,40.3482,-6.0797
MnIn2Te,45.5562,40.1369,-5.4193
Li2TcBr,32.4674,27.9889,-4.4785
InPt2,66.1635,48.6135,-17.55
MnIn3Te,40.4366,36.3659,-4.0707
Rb2TeRh,24.0696,19.1939,-4.8757
MnInTe,53.8955,46.6666,-7.2288
LaRhW2,44.6918,40.8197,-3.8721
RuAuCl2,18.7168,19.9191,1.2024
BaBeTc2,49.4132,40.5059,-8.9074
Tb3(ErTm)2,28.5646,31.016,2.4515
Ta2CuSe,33.1573,34.5441,1.3867
CaBe,0.0,6.9463,6.9463
CdAsPb2,30.6887,32.5197,1.8309
CrCoSi,10.518,9.9718,-0.5462
Cr2SiOs,18.7971,19.2302,0.4331
Sm(HoAl3)2,10.5704,12.8471,2.2766
Hf2AuF2,69.3535,52.6249,-16.7287
HfBiTe4,60.7217,52.6283,-8.0934
GdZrPb2,57.9657,55.9287,-2.0369
HfFeSbTe2,63.0839,49.0627,-14.0211
CaBeAs2,13.8047,11.5586,-2.2461
SiAs,33.5977,27.9021,-5.6956
I5N2,16.7686,16.4088,-0.3597
Li2TaNi,11.2825,13.5656,2.283
PrDy2Ir,22.9447,26.7146,3.7699
Ag3Sb5Pb,41.3951,35.1074,-6.2876
CaSiAs2,20.1163,17.5806,-2.5358
Li2NiRh,14.1275,12.0186,-2.1089
Re3(TcRu)2,48.2959,47.1101,-1.1858
BaZr2Te,59.8385,51.5744,-8.2641
Cs3SrZn,18.9931,19.2448,0.2516
Hf2MoAu,87.129,67.9098,-19.2192
SrPuO2,29.3187,26.9397,-2.379
Ga2SbF,17.1246,16.68,-0.4446
AcH8RuPt2,22.7761,18.5059,-4.2702
Ca(TiBe)2,11.7868,10.8579,-0.9289
Er5Tl2RuRh2,34.4936,33.0438,-1.4498
Np2PdO11,7.577,9.5248,1.9478
CaTb2Y,23.058,22.5732,-0.4848
ReSbPb,46.3,46.757,0.457
Np2MoO11,7.1235,9.3268,2.2033
Pu2FeO11,4.3095,6.2609,1.9513
Np2AuO11,5.8692,8.3685,2.4992
LiThScMo,30.6391,31.4947,0.8556
K2RuPt2,39.76,30.1391,-9.6209
Cr2SiPt,30.6146,22.9903,-7.6242
GdScGe3,14.2339,12.2271,-2.0067
TlAsBr2,20.8075,21.243,0.4355
ReTc(PbO3)2,30.5088,28.1417,-2.3671
Sr2TaW,43.4357,32.0317,-11.404
Cs2ScPCO7,28.6771,24.5578,-4.1193
Th4TcPd,54.2585,53.6972,-0.5613
CaBe4As,12.7353,9.0508,-3.6845
KLaNb2Sb,79.7828,62.2655,-17.5173
Ir2IBr,27.3901,29.9263,2.5362
V7Mo2Os3,90.4745,72.1348,-18.3397
La2GaGe4Pt3,40.8363,31.1172,-9.7191
In3GaP,21.301,19.3721,-1.9289
Cr2ReSi,18.3358,18.5919,0.2561
Cr2ReSi,18.5318,18.5919,0.0601
Rb2NiP2,11.3956,8.7576,-2.638
Cr2ReSi,18.352,18.5919,0.2399
Ag(HgAu3)2,32.5076,33.1832,0.6756
In2AgAu,29.5126,29.1541,-0.3584
Cr2ReSi,18.3857,18.5919,0.2062
TlAsBr2,20.7545,21.243,0.4885
In2AgAu,29.539,29.1541,-0.3849
V(CoCu)2,50.3544,38.2326,-12.1218
Na3BiF6,15.9516,15.562,-0.3897
Ag2AuI6,25.4648,24.3189,-1.1459
LiCoCuO4,19.9881,16.3739,-3.6143
TaReSiH,43.2742,41.7331,-1.5411
Hf(AgI3)2,34.3372,29.359,-4.9781
La3AgRu,40.7145,30.8121,-9.9024
Be2TeBr,14.1429,13.8958,-0.2471
Cd2IrPb,30.6395,34.2918,3.6523
LiMo2Pb,15.3553,19.6463,4.2911
Y(TmAl3)2,16.5987,16.3044,-0.2944
Ru2RhPb,44.9154,40.8903,-4.0251
SiAs,10.0567,27.9021,17.8454
Sr3Sn3Au8,33.7995,35.3208,1.5213
Sr2Tl2O5,0.0,1.3501,1.3501
TaCo2Mo,37.1242,30.3979,-6.7263
La6PrAg2,40.7779,30.4373,-10.3406
La(Pr3Ag)2,9.4119,7.818,-1.594
SiAs,0.0,27.9021,27.9021
TaCo2Mo,37.139,30.3979,-6.7411
BeTe2Br,24.2326,23.5979,-0.6346
TaAuSeBr2,31.2158,29.5426,-1.6732
YMo3N,34.1152,32.9712,-1.144
Tm5IrRu4,27.3357,29.0975,1.7618
BeTeBr2,16.7592,16.4727,-0.2864
Cr2SiRu,15.583,12.8735,-2.7094
TaCo2Mo,37.1974,30.3979,-6.7995
BeTeBr2,16.4697,16.4727,0.0031
BeTe2Br,24.3613,23.5979,-0.7633
Re2AgTe,39.3247,38.7065,-0.6181
Zr2Sn2P,41.1371,37.4098,-3.7272
AlTl2Mo,31.9015,31.37,-0.5315
Sc3Ga,5.6269,8.3875,2.7606
ReAg2Te,36.9664,33.8711,-3.0953
Ce(NdAg3)2,28.9167,25.5363,-3.3803
BaC3I,44.3837,31.0145,-13.3693
BeSiAs2,23.0251,17.6852,-5.3399
V7Mo3Os2,89.4164,69.8765,-19.5399
Sr2Cd4In3Pb,23.3373,22.1613,-1.176
Cr2SiSb,19.9244,16.745,-3.1794
Li2TcNi,25.1443,22.3742,-2.77
Tl2SbSe2,45.0983,39.9758,-5.1225
LiTe2SeN,27.5885,24.3251,-3.2635
NaLa2BiO5,25.2018,23.5825,-1.6193
La2InAg6,34.3481,26.8072,-7.5408
ZrTaTe,59.0567,55.064,-3.9927
TaCr2Se,51.4138,37.7117,-13.7021
Ho(ScAl3)2,6.8437,8.3637,1.52
CsReOs,14.7002,20.8168,6.1166
Tc3(PtRh)2,79.4874,61.2883,-18.1991
ErTlAgSe2,36.7539,33.0413,-3.7126
ScSb,9.7017,20.5862,10.8845
Sc3Ni,0.0,2.3709,2.3709
Sr12Bi5N2,22.2624,23.408,1.1456
Sr12Hg5N2,8.611,9.2302,0.6191
Tb(NdAg3)2,29.0689,25.7422,-3.3267
Cr2SiSe,20.6806,18.1235,-2.5571
BaAgRu2,17.8192,16.8319,-0.9873
In3Ga3Ge2Ir,16.2513,17.3275,1.0761
Ta4AlN3,7.8095,15.2984,7.489
Ba3LiRu,5.1182,5.3861,0.2679
Pm(ScAl3)2,6.9359,7.7431,0.8073
Ca3CuN3,0.0,0.0,0.0
AcZnH6Pt,17.8439,15.1846,-2.6593
Li2CoCuO4,25.0873,21.0368,-4.0506
Na3Th(ZrTe3)2,48.1369,43.5562,-4.5808
TaAuSe2,44.9225,41.5435,-3.379
Pr(NdAg3)2,25.5779,22.2324,-3.3455
LiV(CoP)2,34.1853,26.1072,-8.0781
AgGe2N3,3.3668,5.3416,1.9749
Sm2ThAg6,33.5741,30.4071,-3.167
TaSn3P,23.1486,22.4097,-0.7389
Ce6Cd2Ag,24.2833,25.4031,1.1198
Np2AgAu6,50.4614,51.1704,0.7091
Ga2NiN3,3.6631,4.8901,1.2269
CaSmY2,19.5334,18.2291,-1.3043
Rb(SiIr)2,23.2832,22.275,-1.0081
BiMo3P,28.0889,26.3103,-1.7786
Sr2Sb2Au15,43.2183,43.2683,0.05
MoRh2Br,25.8121,21.9579,-3.8542
Ce6Tl2Ag,31.3134,32.3386,1.0252
Li5Co2Cu3O10,23.5317,20.0066,-3.5251
LiCa2Be3Si4,22.6229,17.2483,-5.3746
NpCu2Bi,35.0387,37.0606,2.022
Pm5Y4Hg,25.2232,25.3127,0.0896
Zn2OsN3,30.596,24.9359,-5.6601
V7Tc2Ru3,94.6619,74.856,-19.8059
V2CoP,66.4836,51.8376,-14.6459
Ti2CdNi2,9.7443,10.1025,0.3582
AgSbRu2,28.304,26.0912,-2.2128
In2Co3N4,73.1361,64.3784,-8.7576
Li4Co3CuO8,21.2202,18.9775,-2.2428
Cr3N4,9.605,8.882,-0.7229
V2Co2Cu,60.494,47.7377,-12.7563
Sm5Y4Hg,25.3353,25.4627,0.1274
CeI3,22.1561,24.3601,2.2039
LiCu2P,5.8038,6.9134,1.1096
Pr5Y4Hg,11.9585,11.1068,-0.8517
LiCuP2,9.2875,8.6435,-0.644
Pu2CdAg6,39.1191,34.8716,-4.2475
Sr2ThZrAs4,32.7261,29.2126,-3.5135
PaGaRuN,38.3116,39.2438,0.9321
ScBi2,32.6911,36.8825,4.1914
Cr2SiTc,31.4413,26.506,-4.9353
PrY5Hg4,24.4084,20.3917,-4.0167
BaY4Hg5,25.8673,21.8513,-4.016
La2TbAg6,35.0629,28.2416,-6.8213
Ru2PbAu,33.4258,36.1065,2.6806
TlSiSb,37.3577,33.9434,-3.4144
Pr4Y5Hg,13.5024,12.9032,-0.5992
Pr2ErAg6,22.8449,19.5182,-3.3267
TbY2Hg3,17.1449,15.5393,-1.6057
Cr2SiTc,31.6186,26.506,-5.1126
Cr2SiTe,19.1634,17.204,-1.9594
Ti4MoOs,6.5603,9.6675,3.1072
Y2AlHgMo,32.3529,24.5459,-7.8071
Nb8N5,86.6129,68.3093,-18.3036
CdOs2Pb,39.8951,42.4363,2.5412
Ti4ReMo,5.7875,9.5427,3.7552
TlSiSb2,39.1333,35.2513,-3.882
Ca2TcPb,39.1856,36.1244,-3.0611
Lu2ScPb,31.007,33.6858,2.6788
YMoN3,23.5917,20.526,-3.0657
Ca2TcPb,39.141,36.1244,-3.0166
Sr5SmSb4,26.2934,24.6357,-1.6577
CaTcPb2,50.9783,48.8236,-2.1547
SmPaAu2,46.2828,49.0914,2.8086
ZrTlSb2,59.7448,53.3451,-6.3998
TlMo2Au,32.691,35.1684,2.4774
La2AlAu6,42.6603,40.5244,-2.1359
Rb2GeBi2,22.5876,21.9058,-0.6818
BaGePb2,24.878,26.9873,2.1093
Ta2AlNi6,12.3702,14.5746,2.2044
SmSbRh,32.4522,29.1943,-3.2579
MnTe2Pb,54.7121,49.1929,-5.5192
Y4HgPd3,30.8336,25.9512,-4.8824
TlCr2Si,21.717,20.048,-1.6689
ZrSb2TeW,55.2631,48.3547,-6.9084
Ba(GePb)2,20.9624,23.0075,2.0451
BeNi2Br,6.1739,8.5183,2.3445
HfUTe4,62.7913,55.0583,-7.733
BeNiBr2,7.6685,8.5234,0.8549
SmY2HgN,39.1611,34.144,-5.017
BeNiBr2,7.1955,8.5234,1.3279
ZrTlN2,30.1238,29.3367,-0.7871
Be2NiBr,4.7072,3.9274,-0.7798
YMnNi,100.6675,86.4979,-14.1696
Ce2(InAu2)3,35.3313,36.3976,1.0664
Cs2(InPb2)3,38.4425,39.0839,0.6414
PmY3Hg4,17.8402,15.1679,-2.6723
LiV3Co,80.2592,62.0225,-18.2368
NbCdP2,42.2004,36.387,-5.8134
ZnIr2Pb,41.2668,39.631,-1.6358
ZnIr2Pb,41.2508,39.631,-1.6198
LiCuO2,17.2772,11.9133,-5.3639
ZnIr2Pb,41.3184,39.631,-1.6874
GdURu2,32.43,36.5393,4.1094
TaAuSe2,45.1857,41.5435,-3.6422
RbNa2Al,12.4319,10.7187,-1.7132
CsUTe4,38.1689,38.6369,0.468
BaAsPd2,6.2297,9.04,2.8102
Ba2LaZr,34.7162,29.2771,-5.4391
AlCr4Si,15.7618,13.9786,-1.7832
CoSiSe,22.964,19.8414,-3.1226
Ta2SiC,26.5647,27.4591,0.8944
Re2OsAu,42.7095,47.7958,5.0864
Y4HgIr3,24.5564,25.451,0.8946
AlCoNi2,23.7269,20.4612,-3.2657
ZrCrS2N,50.8472,39.2575,-11.5897
Re2OsAu,42.584,47.7958,5.2119
Pr2AlAu6,30.3518,31.5738,1.222
ReAsIr,22.7892,30.6722,7.883
TaBe2Sb,26.2013,24.2317,-1.9696
Ta2BeSb,32.6789,32.4331,-0.2458
YPt2I,48.7642,38.1583,-10.6058
In3(SnPb3)2,34.6941,35.5271,0.833
AlCo3Ni,31.2812,22.4242,-8.857
Mn2GeC,68.0089,53.5869,-14.422