Formula,E_hull_DFT (eV/atom),E_hull_ML (eV/atom),Delta (ML - DFT)
Ba2PaMnSe6,38.4492,32.7016,-5.7477
Y2Ga4NiIr3,41.1918,39.3431,-1.8487
Tl2ZnRe,49.3295,42.5704,-6.7592
Ba2NpMnSe6,38.6368,32.7427,-5.8942
Ac2NpMnSe6,50.795,45.0358,-5.7592
PaMn(PN3)2,21.1541,17.5323,-3.6219
UMn(AgSe3)2,51.5803,42.3961,-9.1842
AlInSe,23.4184,21.9102,-1.5082
Tb2TmMnSe6,45.8342,38.9486,-6.8855
Tl3ZnRe,49.662,44.1755,-5.4865
Ac2TmMnSe6,47.4037,41.6293,-5.7743
ZnReGe3,27.3714,23.475,-3.8964
SnPBr,7.9715,9.7818,1.8104
AlSi2Sb,30.0192,23.9469,-6.0724
Li(ErAl3)4,9.3542,10.6071,1.2529
Dy2SeBr2,23.507,22.8668,-0.6401
ZrAgBr2,33.9506,32.4653,-1.4853
SrMn(AgI3)2,27.3556,25.3855,-1.9702
Ho2MnGePt6,69.5008,53.5153,-15.9855
Pa2AlCrN6,8.1064,10.7958,2.6894
NiPb3,41.1409,42.8337,1.6927
Dy2TaReN6,28.6369,29.2713,0.6344
Ca3TaW,20.017,20.9342,0.9172
Sr2YRu,14.7368,16.5394,1.8025
Sr2YRu,18.9245,16.5394,-2.3851
TlGaSn3,25.0344,25.7516,0.7172
Sr2YRu,19.4439,16.5394,-2.9046
AlInSe2,25.1439,23.1907,-1.9532
Nb2CrC,103.9323,85.3937,-18.5386
Pa2MnWN6,26.9072,27.6564,0.7492
Tl2NiAu,36.1196,38.1396,2.02
NaSr2IrO5,22.0939,19.6634,-2.4305
SmScPbAu,31.9349,34.5275,2.5926
TbAgSb,33.8587,30.9396,-2.919
SmYPbAu,34.0633,36.8034,2.7401
RbBaPa2O7,10.0535,11.0334,0.9799
TbNd4In15,20.6772,21.7848,1.1076
Li(NpGa3)4,22.252,23.5083,1.2563
La2PrGd,32.0745,26.9619,-5.1126
MnTl2Si,54.5585,48.2943,-6.2642
TcPPd3,30.3081,28.0823,-2.2258
SbOsRh2,40.0793,34.9371,-5.1422
In3OsC4,43.7694,33.6863,-10.0831
AcPt4F,71.0323,54.4601,-16.5721
P2IrBr,22.9324,20.2797,-2.6527
VAgSb2,58.3527,46.8799,-11.4728
Ac2Pm3Pt2,53.9358,47.6592,-6.2766
SrCrOs2,29.5256,29.5219,-0.0037
VZn3Cd,35.157,29.3503,-5.8066
TaPPb2,39.084,39.3481,0.2642
Sb(PdPt)2,47.4497,37.3655,-10.0842
SmYZrIn,40.2861,37.5838,-2.7023
NaAsPbSe2,48.7795,42.4862,-6.2933
FeTeOs2,41.6699,37.3963,-4.2736
BaLiPmIn,13.1009,14.3138,1.2129
YCuRu2,26.2276,23.7762,-2.4513
Ac3AsPt,58.1469,54.1407,-4.0062
Ac2TePt,64.0371,58.9711,-5.066
MnTcNi2Ag,68.7274,58.2762,-10.4513
YCuRu2,26.2903,23.7762,-2.5141
Dy8SbC4,38.6964,32.5942,-6.1022
Ba6IrAu2N,9.5993,11.5324,1.9331
NaP2WN6,28.8245,23.8698,-4.9547
PtRhAu2,58.5172,50.074,-8.4432
CaWN3,17.4872,18.6272,1.14
In2GaBi,25.7531,27.1662,1.4131
Zn2CrSe,19.7975,16.2545,-3.5429
TaAg2Sb,36.4194,32.9647,-3.4547
VNiGe2,36.6453,28.8074,-7.8379
Ca2NdWO6,17.4264,18.9805,1.5541
YRu4,19.3718,19.4366,0.0648
YGaIr2,19.98,24.5962,4.6162
Ba6AgHg2N,0.59,0.8705,0.2805
Y4GaIr2,21.9524,23.8968,1.9444
InRh2Cl,30.6512,25.626,-5.0252
ZnIrBr2,22.8448,19.696,-3.1488
LiTaOs2,30.2501,34.2946,4.0445
Y5Ru,17.1495,17.1838,0.0343
Ag2Pt2Rh,53.8494,39.4022,-14.4472
VNi2Ge,41.9077,33.3345,-8.5731
Ir2PtPb4,55.7134,53.3551,-2.3583
Zn2Ge2Sb,12.9755,13.2479,0.2724
Sb3OsRh,46.2468,39.2225,-7.0243
Cs2PCl6O,10.5459,9.8228,-0.7231
Be2WSe,27.8667,24.2086,-3.6581
Zr2CuS,57.7917,49.53,-8.2617
Be2WSe,27.8244,24.2086,-3.6158
Be2WSe,28.234,24.2086,-4.0254
LaOs3,35.6469,35.7699,0.123
Be2WSe,28.0403,24.2086,-3.8316
BeWSe2,37.4371,32.1932,-5.244
BeW2Se,34.3391,33.5727,-0.7664
IrRuPb,43.8844,41.0819,-2.8024
Er2SeI2,29.1342,28.3981,-0.7361
NaNp(ReN3)2,59.0059,53.2491,-5.7568
Sm4IrAuBr2,32.7342,30.4562,-2.278
IrRu2Pb,37.0642,36.1426,-0.9216
BeW2Se,34.6596,33.5727,-1.0869
CuAu,12.6306,17.2871,4.6565
CsSr2Ac,29.0771,30.4231,1.346
LiTh2Al,36.839,38.2168,1.3777
Li2Er2TmPd5,12.0435,14.7721,2.7287
AlRe3Sn,30.3495,32.8609,2.5113
GaFeRu2,28.7897,22.7368,-6.0529
NaZn2Pb,23.2045,22.8937,-0.3109
Sm(ErCu)2,14.7187,18.2554,3.5367
Ac2TlInPt6,73.5971,58.9973,-14.5998
TlCu2P,17.707,17.3695,-0.3375
TlPtW2,54.7256,51.3363,-3.3893
NaSmSnAu,28.9133,29.6051,0.6919
TlMoRh2,41.2761,36.0852,-5.191
TbErAlAu,25.9417,28.7419,2.8002
Y5Ru,18.1713,17.1838,-0.9875
RbNa2TlBr6,15.9989,15.5838,-0.4152
AlHg2Rh,13.2018,10.2206,-2.9811
Na2SrHgBr6,12.6404,11.8135,-0.827
Na2InAuCl6,13.0387,13.1151,0.0764
Sr(InW)2,27.3609,26.2626,-1.0983
NbGaN,42.395,38.0321,-4.363
AlHgRh2,24.8177,18.9725,-5.8452
AcTa(CoO3)2,18.5636,17.1314,-1.4322
TaCo2PbO6,18.9222,16.3247,-2.5975
In2BiP,25.0126,26.2177,1.2051
BiP3Pt,31.5832,26.9809,-4.6023
CaAcTbDy,31.0146,33.4995,2.4849
Al2NiPO6,3.6446,4.7579,1.1133
RbBe3Ir,9.3803,10.8733,1.493
TmV2,96.2648,77.6502,-18.6145
BiRu2W,51.5889,44.565,-7.024
CeY2Sc,14.4821,17.6333,3.1512
TaPtRh,58.1044,47.6335,-10.4708
SrV3Te,90.6926,70.5117,-20.1808
Na2CuPbCl6,12.5596,11.6414,-0.9182
SmAuI,26.5849,30.4909,3.906
Ti3AuC,7.1348,3.6368,-3.498
Sm2TlAuO5,9.2788,10.5782,1.2994
PtPb,71.2158,59.2999,-11.916
In3NiBi,25.1651,25.3895,0.2243
Li2SmPbAu2,28.2911,29.688,1.3969
Sm2Pd2Se,25.6307,25.9249,0.2942
Zn3BiW,24.1713,25.4432,1.2718
Yb(GaRu)2,12.7145,15.0513,2.3367
TbSmPtAu,46.0685,41.775,-4.2935
NaCa(InBr3)2,12.6648,12.5452,-0.1196
Rb2NaTbBr6,7.0553,8.4879,1.4327
Rb2GeOs,12.1907,13.9093,1.7186
NaLa(TlCl3)2,14.6947,14.6346,-0.0601
KNa(ZnCl3)2,3.2808,3.0769,-0.2039
LiSm(YAu2)2,29.5448,31.6642,2.1194
Na2PdAuCl6,13.118,12.9796,-0.1385
Th4ZnSb,46.8599,50.3148,3.4549
Ac2Sm2CoAu2,40.1207,41.5929,1.4722
Na2PdPbCl6,13.3708,13.8907,0.5199
Sb2PPb,36.9013,34.1384,-2.7629
Mg(PaRh3)4,49.9236,39.9283,-9.9952
LiSm2Ge4Au3,22.3804,23.7888,1.4083
TbDyYHo,24.1747,27.1648,2.9902
AgAsRu2,21.8797,19.9903,-1.8894
TaMo2AsPb,27.6594,29.3513,1.6919
Tl2PbSe2,46.2779,44.0097,-2.2683
Pa(MnAs3)4,34.1573,30.1844,-3.9728
ReSbIr3,44.5227,44.735,0.2124
LiAgAs2,12.8436,12.0007,-0.843
NaPm(AgCl3)2,12.3531,11.11,-1.2431
NaAg2PbCl6,12.6597,11.6636,-0.9961
PaMnMoC3,50.8928,41.2,-9.6928
La2Te2Se,39.7519,33.2014,-6.5506
Na(In3Te4)2,31.8208,29.8538,-1.9671
NaInTe2,28.5901,26.9594,-1.6307
YTcRuW,84.9412,72.1195,-12.8217
LaSmTlAu,43.1602,41.773,-1.3872
TlPPt2,58.6745,46.5635,-12.1109
Na2InTe2,27.0539,25.0561,-1.9978
Rb2Ti2V,27.3825,22.0323,-5.3503
RbTeP2,16.4253,14.2459,-2.1794
PaCr2FeO6,13.2161,12.5322,-0.6838
Li3Al,4.0117,3.8732,-0.1385
Er2ZrIr3,38.8514,40.3298,1.4784
SmPaGeAu,36.8483,39.9166,3.0683
ZrPb,69.1502,65.1391,-4.0111
PmSn2Sb,27.3009,27.0132,-0.2877
DyY3(HoSe2)4,33.7556,29.8559,-3.8997
CaHfSe2,81.2005,60.9575,-20.243
La4OsI2Br,37.31,31.1577,-6.1524
ScTi3Cr,15.5878,15.8609,0.2731
Sc2TiCr,18.177,18.3772,0.2001
Pr2Nd5Tm,13.3348,15.5752,2.2404
Li2ZrAl,28.4655,24.4619,-4.0036
AcPt2Au,66.4678,56.5828,-9.8849
Ce3(CdAu)4,30.5948,31.6264,1.0316
Na3TcPb,45.0451,38.5617,-6.4834
LiSmTlAu,30.4155,32.593,2.1775
BaRu3N,29.9997,28.1128,-1.8869
AcBiPt,68.6454,61.9996,-6.6457
Zr2MnSi,77.6754,64.4779,-13.1975
TePt2,68.8314,53.9437,-14.8877
Ac3PtAu,60.3407,57.4838,-2.8569
TcP2Au,30.7792,34.7288,3.9496
NaMg2TcH8,12.0207,10.3934,-1.6273
SmU(TlS2)2,51.5927,44.6083,-6.9844
Sm6GaRu2,15.497,17.6613,2.1643
LiSmPtAu,39.775,35.321,-4.454
Dy2GaCoO6,5.4643,6.8144,1.3501
TlGe3W,25.5802,26.1828,0.6026
CaNd2Te3,28.6372,28.6955,0.0583
K2FeOs,27.4726,21.5565,-5.9161
Na2ZnCd6Hg,16.2532,16.1089,-0.1444
Sc2PaTi,20.775,23.5177,2.7427
YbCuSb,24.2697,25.2885,1.0189
Pu2Si2Bi,45.2677,43.7248,-1.5429
TaTlP3,21.3799,20.9261,-0.4538
AgSbPb,42.9923,39.2413,-3.751
Tl2NiI6,27.0425,28.174,1.1315
BaPb3,39.2557,40.5595,1.3038
Y3Os,16.3844,17.2133,0.8289
Sr2HfSnO6,29.7234,24.8371,-4.8864
LiSm2Gd,20.131,22.6527,2.5217
Na2AcUS6,45.5852,36.9641,-8.6211
Re2SbP,52.5879,46.8266,-5.7614
Ca(AcSi)2,31.4124,29.4927,-1.9197
Tb2Y6ErTh3,30.3441,31.9154,1.5713
Cd3BiBr,22.9403,24.869,1.9287
Na2SrUS6,40.9821,31.2894,-9.6926
NpAg(HgO3)2,15.6791,14.8834,-0.7958
ScCrBr2,24.0761,21.6473,-2.4288
ScCrBr2,18.714,21.6473,2.9333
Pr2PPb,10.6265,13.916,3.2895
Sr6Tl2Ga,20.9119,21.7169,0.805
Cd2Bi2Br,29.583,30.9928,1.4097
AcScPO,72.5803,67.5418,-5.0386
Na2Sr6HgPt,19.4239,17.2446,-2.1793
RbYHg2,12.988,10.6934,-2.2946
Tb2Y2ErTh,23.8688,26.5738,2.705
Zn2Pb2Se,31.0955,30.1892,-0.9063
NaAg2HgBr6,12.8685,11.4813,-1.3872
Ag2TeMo,32.8119,27.5425,-5.2694
Ac4SmLu,53.1694,54.3586,1.1893
Sr2Sb2Pd15,20.4596,20.328,-0.1316
CePmGd,26.4627,28.8516,2.3889
NaCa(AgBr3)2,15.1528,13.4396,-1.7132
Na5NCl2,21.5868,18.6169,-2.9699
AcSmLuTh,47.4423,50.4879,3.0456
ReNi2Rh,44.6623,31.8968,-12.7655
Rb2NaAcBr6,10.8231,12.2007,1.3776
Sr2TiPdO5,10.3062,9.4681,-0.8381
Sr2TiTlO5,2.5589,4.9606,2.4017
Pr2Nd4Sm3,18.2883,21.0487,2.7604
Y2Co3Ge,34.5177,29.6412,-4.8764
BeRe2Ni,33.4247,27.1802,-6.2445
Rb2NaPrBr6,7.3708,7.6108,0.24
TiTlPb2O5,10.6781,14.1575,3.4794
TiVAg2O5,14.2756,12.5364,-1.7392
NaCd(InHg3)2,8.1059,8.0305,-0.0754
SiNiOs2,26.1211,28.3669,2.2458
Y2CuNi,71.1806,62.0478,-9.1328
Zr3Al2Cu3,41.5272,35.0217,-6.5055
Sm2TcAu,47.2846,45.4159,-1.8687
Zn2CdBi,20.719,22.4683,1.7493
InAsW,24.4804,25.7737,1.2934
ThZr(SiIr)2,45.8595,43.3287,-2.5309
BaSb2Te,32.5697,29.3057,-3.2641
InAsW2,27.7909,30.3025,2.5117
InAsW2,28.2105,30.3025,2.092
Zn2CoCl,11.0744,7.4652,-3.6092
Tl2NiW,39.383,39.5009,0.1179
Li(BeRe)2,11.1685,15.9038,4.7353
Zn2GaTe4,27.1607,26.2501,-0.9106
K2NaBiCl6,7.8992,8.4966,0.5974
AcPrPt,43.2856,28.3524,-14.9332
Pm2PrErTl4,34.3117,36.2669,1.9551
Lu2GaAg,26.2585,26.7497,0.4911
Nd2Y3Ho2,21.0859,23.3325,2.2466
MoAsPbSe2,47.997,43.4839,-4.5131
MnTl2Ge,48.6449,46.8991,-1.7459
TaAs2SeBr,35.2558,33.5148,-1.741
Tb3PmNdSc,18.4967,20.1453,1.6486
NaPu(TlCl3)2,16.1616,17.8271,1.6655
IrRuPb2,46.0423,43.8803,-2.162
TaGeAs2Se,35.0185,33.3564,-1.6622
PmPr6NdHo2,5.3574,6.0848,0.7274
SmTh2Rh5Au,42.6416,36.7907,-5.8509
NaCd(CuI3)2,16.6708,16.9322,0.2615
PmPr6NdDy2,3.0296,5.0393,2.0097
NaCu(AgBr3)2,17.1248,15.3335,-1.7912
TbTmSnAu,30.6199,33.3686,2.7486
NaCu2SbI6,18.9827,18.5099,-0.4728
YVBi2,62.9246,57.0897,-5.8349
Sm5(YHo)2,23.2824,26.4828,3.2004
Ta3MnTe,52.265,49.2894,-2.9756
ZnIn2Sb,23.1429,22.3227,-0.8201
ZnIn2Sb,23.1747,22.3227,-0.852
Zn2InSb2,25.0905,22.9487,-2.1419
MnTlGe3,36.9607,33.19,-3.7707
NiRu3Br,18.7864,18.1387,-0.6477
Y(VBi)2,76.1486,65.0677,-11.0808
LuAlI,17.99,19.3744,1.3844
Pm6Pr2SmTm,14.9846,17.0537,2.0691
MgFeBi2,24.6064,27.3732,2.7667
NaTbAu2,35.8876,36.3425,0.4549
In2TcH6,11.0628,10.5072,-0.5556
CdPBr2,11.3558,11.7352,0.3794
CdPC2,32.3273,23.2752,-9.0521
SnGeBi3,39.3124,40.0611,0.7487
HoTmAg4,30.5426,27.3097,-3.2329
Dy(WO3)4,14.0398,15.9337,1.8939
Np4HgO12,16.8739,18.2776,1.4037
Pu4HgO12,15.3363,17.4041,2.0678
CdSiP,17.7675,16.6813,-1.0862
LiNd2UAs4,18.862,20.9517,2.0896
Ga2Co2Pt,18.0621,16.2825,-1.7795
PmPr6Nd2Sm,2.4887,4.4906,2.0018
NiOs4Br,32.2734,34.1482,1.8748
Sr2CaRhO6,9.2757,9.3533,0.0776
Th2Si2Ge,33.673,33.3112,-0.3618
ZnFe4Se,10.9738,9.6904,-1.2835
NaAcPt2,66.4233,53.986,-12.4373
NaBi(PbBr4)2,27.0755,25.8986,-1.1769
La2ZrSi,53.948,41.9917,-11.9562
Li3TaBe,10.8988,10.7895,-0.1093
LiBeSe2,24.6106,18.7566,-5.854
Be2PSe,8.9724,8.0148,-0.9576
NaNCl3,17.1104,14.9571,-2.1532
TaCu2Au,26.3819,27.2519,0.87
Li2BePSe4,27.1825,21.2951,-5.8874
Al2VRh,39.9036,33.1816,-6.722
Rb2HoTlI6,17.6712,19.5637,1.8925
SiRh3N,32.8041,23.2097,-9.5944
Li3ZrBe,21.2617,17.9257,-3.336
AcThZr2,81.9633,75.8926,-6.0707
CaTcSe,69.856,56.6416,-13.2144
Dy5Er3S,30.9751,31.1677,0.1926
RbNa2HgI6,15.9408,15.6131,-0.3276
UTa4O12,11.6599,13.1948,1.5349
Tb6PrNd2Ho,18.8032,20.9514,2.1482
Na2CuNiBr6,10.6768,10.4797,-0.1971
Mo(WO3)4,17.6035,18.4232,0.8197
Hf4ZnIn,93.0159,65.4274,-27.5885
Mo(OsO3)4,15.381,15.2742,-0.1068
Mo4WO12,22.1165,19.7788,-2.3377
Pm2PrNd6Er,17.6827,19.7597,2.077
Tb2GdAg,28.527,29.0792,0.5522
La4Y3Ho4,32.8853,30.1336,-2.7517
Nd2Y5Ho2,19.4822,21.0812,1.599
Rb2NaAsI6,22.2555,21.056,-1.1995
ZnPbBr2,27.8964,26.0857,-1.8107
Zr3Cu5,40.9619,36.6244,-4.3375
BaRhI,20.0732,17.2258,-2.8475
NaAg2IBr6,17.5518,15.9674,-1.5844
Pr5(YHo)2,8.4141,10.3363,1.9222
Sn(POs)2,15.6675,20.024,4.3565
Cs2NaSbI6,21.9227,21.8565,-0.0662
Tm2BiC,37.3606,38.2602,0.8996
Tb3Sm2Y6In,20.0079,20.7309,0.723
Ho2PaPb,44.0894,46.4353,2.346
Cd2TePb,33.323,33.2014,-0.1216
PaAg2Pb,45.8331,44.4034,-1.4298
Re2GeS,43.3172,37.5561,-5.7611
Dy2Y2Ho3,23.9319,26.4704,2.5385
UInNi,18.2929,23.9678,5.6749
CaGdPdAu,24.0751,26.5593,2.4842
Ba4SrYCu6(PbO4)4,15.0913,13.7062,-1.385
NaAc,44.7373,44.1031,-0.6342
Be2TeW,21.9944,21.6119,-0.3825
BeGaO3,8.072,9.2317,1.1597
Zr5CuRh4,68.8199,56.1527,-12.6672
SmGa4Au,13.418,15.5373,2.1193
Hf2HgB,72.3584,52.5407,-19.8177
B2PdRu2,2.8436,8.2121,5.3685
BeSbCl2,14.6864,12.5936,-2.0927
RbTi3S5,32.4243,23.6417,-8.7826
Be2SbCl,13.7608,11.7211,-2.0397
SiNiAu2,29.0333,29.0572,0.0239
Be2SbCl,13.4007,11.7211,-1.6796
SmGa5Au,15.974,17.3126,1.3387
Li4AcTh,22.2775,23.4689,1.1914
LuAl2Ga,11.812,14.2439,2.4319
Ba2InNiPb6,31.6413,32.161,0.5197
Nd2Sm2Y2Ho,22.2335,25.6028,3.3693
CeGdNi,23.6388,24.4033,0.7645
BaU(AgO3)2,6.5614,5.769,-0.7924
Rb2Tl2Sn,22.8515,24.1759,1.3244
Ac3Ge2(BiPt2)2,60.9395,52.8124,-8.1271
Pr(ScSe2)2,20.3005,17.1254,-3.175
BeCr2Br,21.3878,18.8074,-2.5805
Ba2CrReO6,5.42,5.8493,0.4294
Y3Ho4,22.1336,25.4776,3.344
Ac2CdSb4Pt3,58.8657,48.8463,-10.0194
BaAc2CrO6,14.2517,15.4109,1.1592
ZnTePt2,52.8303,41.5789,-11.2515
BaTa2Te,29.4018,31.5689,2.1671
LaSi2Pd5,20.7988,18.9011,-1.8977
Co2IrAu,27.0107,30.6587,3.648
LaTi2Sb,20.6013,18.2851,-2.3162
Bi(WO3)4,15.9893,17.7838,1.7944
SiNiMo,35.6772,30.2937,-5.3835
BaNbCoO5,10.9243,10.51,-0.4143
Gd2ZnGa,18.7635,21.0726,2.3091
NpTlPb2O5,24.0042,25.7131,1.7089
PaAg(HgO3)2,9.1146,9.8108,0.6961
Ca2IrPd,24.8993,21.5597,-3.3396
MnRuF3,27.9056,24.4629,-3.4426
Ta2SbSe,42.0209,39.7917,-2.2291
AcCd2Pt3,56.6983,45.3695,-11.3288
CsBeCu2,14.9549,12.9655,-1.9895
AsRu3Pt,32.6865,27.2682,-5.4184
MgTa3Bi,35.6111,37.5509,1.9398
Tl2FeAu,37.5699,38.7379,1.168
Ac2CdSn4Pt3,49.1877,42.5268,-6.6608
AlTc2Mo,56.7102,46.4285,-10.2817
Ta2InCo,46.0346,39.341,-6.6936
Ac2Zn3CuPt4,50.9358,41.6159,-9.3199
Ac2FeGe4Pt3,42.8524,36.1478,-6.7046
Y3Ho8,24.3833,27.4409,3.0576
Zr2TlAu2,62.5129,59.2784,-3.2345
GeAs2Ru,16.7983,14.6917,-2.1066
SmSnAu,30.4465,20.8689,-9.5776
Ca2EuSn,14.4941,16.1871,1.693
H2AuF6,6.8451,8.7304,1.8853
H2BrF6,2.9514,5.2863,2.3349
Al2TcMo,35.3736,28.2486,-7.1251
BaMn2Te,60.6263,50.0553,-10.571
GdI,16.4805,19.8106,3.3301
KBaBr,8.9181,8.2607,-0.6575
SmAl3Au,2.6323,7.5802,4.9479
ReTcS4,52.9674,41.5567,-11.4107
Ba2AcThO6,3.189,7.4277,4.2387
MnBeBr2,31.2087,26.1866,-5.022
Ba2NbAlO6,8.3394,6.6707,-1.6687
Ba2AcUO6,4.8864,7.4345,2.5482
AlTcMo2,41.8553,33.7578,-8.0974
PrSm3(Dy3Th)2,30.5811,32.0541,1.473
Dy4Ga2N,17.417,19.9807,2.5637
NaSb2Au,36.8697,33.3226,-3.5471
AlTcMo2,41.8041,33.7578,-8.0462
Ac2AlTlO6,16.3709,18.4708,2.0999
Sb2(AuF6)3,11.814,12.6813,0.8673
ZnC3Se,50.3569,35.0082,-15.3487
MnSbTe2,57.8649,49.3679,-8.4971
Mg2HRh6C,36.8295,26.4494,-10.38
Rb2ZnC,19.3112,13.7655,-5.5457
Y4GaS2,17.625,15.5851,-2.0399
Pb2Au,47.2313,50.21,2.9787
Ba2AcPuO6,3.1163,7.3846,4.2683
Ga4Pt6S,56.7531,41.6422,-15.1109
TeAs2Pb,29.0372,28.9506,-0.0866
Sm2TiGa4Au3,24.9826,23.9788,-1.0037
MnSbTe2,57.5335,49.3679,-8.1656
Cs(ScPd)2,15.4443,14.7276,-0.7167
Ba2AlTcO6,4.3435,3.3357,-1.0079
MnBe2Br,28.2349,24.3266,-3.9083
Mn2BeBr,53.2876,43.3348,-9.9529
ThCr(FeO3)2,14.3344,12.3364,-1.998
PaSbPd,37.3007,38.9659,1.6652
Mn2BeBr,53.4689,43.3348,-10.1341
SiH2F6,4.0182,4.5499,0.5318
K2Tm2Bi2Se,33.7936,33.0156,-0.778
AlTl2BiO6,9.8069,13.1115,3.3046
TaAg2AsO6,10.7317,9.5792,-1.1525
Te3AsPb,38.7705,36.8187,-1.9518
MnCrCd2,36.9808,32.2554,-4.7254
SrLa2Nd,35.5071,29.3658,-6.1413
Cs2KAlBr6,11.7826,12.8047,1.0221
SmGaAu,21.6984,24.9429,3.2445
LiMnAu3,48.6673,45.1571,-3.5101
Ta2InCo,46.2441,39.341,-6.9031
Cs2InSn,20.2132,21.782,1.5689
YPaPt,32.6437,32.6339,-0.0099
Na2TbCeS4,39.2144,30.9426,-8.2718
Sm3(GaAu2)2,30.5669,31.9483,1.3813
SiPbF3,24.5013,23.3555,-1.1458
YLuTlRu,32.8875,31.6299,-1.2576
Ca2CeCoO6,15.253,14.0585,-1.1945
AuI,27.687,30.6086,2.9216
Cs(SmAu)2,29.8671,32.7024,2.8352
CsTeOs2,39.4741,40.2112,0.737
FeAg2Pb,31.6519,27.3668,-4.2851
Li2AcPtF8,16.4685,15.4645,-1.004
YSc2Se,17.6244,17.164,-0.4605
Nd3Pb,31.2924,33.4308,2.1384
Ca2ErTaO6,14.8791,16.4655,1.5864
FeAgPb2,36.9059,34.8017,-2.1043
Ca2FePbO6,19.7385,18.3571,-1.3814
RbPPd2,12.2421,11.2966,-0.9455
AcTbInPt,49.5153,45.3985,-4.1168
InFe2Ni,25.4869,18.3754,-7.1115
Sr6H2Pt,15.6852,14.0349,-1.6503
Ca2FeRhO6,18.9655,16.5662,-2.3993
Ca2GaIrO6,22.7706,21.8009,-0.9697
Zn2TeBr,14.9805,16.845,1.8646
Ta2PbW,41.4234,45.8294,4.406
Ca2HoOsO6,18.4107,17.7284,-0.6823
CdCo2Au,21.0242,21.86,0.8358
RbPu(CuO3)2,1.1644,2.3272,1.1628
Cu2RePd4,18.8235,20.4206,1.5971
PaCu2RhO6,12.064,12.7538,0.6898
Zr2Al2Rh,42.7118,36.8406,-5.8712
TaPbW2,42.3209,46.8802,4.5593
BaCa2Tc,26.2734,23.1333,-3.14
Cs3OsO4,13.4914,16.1825,2.6911
AcInGa2Pt5,60.4849,46.5144,-13.9705
Sm2TcAu,47.2873,45.4159,-1.8714
RbSN2,25.2094,20.1572,-5.0523
Ca2NdPtO6,21.8504,19.8163,-2.034
PrMg2CoH6,3.984,4.0871,0.1031
Zn2Bi2P,22.9808,24.2369,1.2561
Ac3CdSi2Pt9,69.0944,52.8726,-16.2218
NaAcTePt,54.3286,47.5513,-6.7773
AcSbPt,65.1529,56.0743,-9.0786
SeBr2O,18.6993,16.7151,-1.9841
Ca2InPdO6,23.9337,22.2666,-1.6671
TlCd2Re,62.0383,52.7779,-9.2604
ZnCrP,38.3329,35.6141,-2.7189
Ca2ErPdO6,20.8022,20.0802,-0.722
Tm5Tc,40.9647,40.8906,-0.0741
LiSbRu,14.9206,16.9063,1.9857
YGa2Ir,18.5514,21.1467,2.5953
Ta2BeCd,20.6725,24.3394,3.6668
TlCd2Re,62.0255,52.7779,-9.2477
ThPa5,67.1899,69.8246,2.6347
SmZrGaAu,44.2948,42.5784,-1.7164
Os2PdW,99.0221,85.0121,-14.01
BaCa2ScRh,15.3791,11.0192,-4.3598
Y3HoIn12,20.6566,20.0053,-0.6512
RbRePd,21.9681,23.3288,1.3607
Zr2Al3Cu,35.7098,31.9049,-3.8049
ZrMnPd,55.804,50.1841,-5.6199
AcSbPt2,71.5433,58.1155,-13.4279
LiSmAu,23.7541,25.8498,2.0956
Zn2FeGe,10.5026,8.4631,-2.0395
NpScTc2,102.6736,88.8999,-13.7737
Ti2P2Rh,4.4928,5.2669,0.7741
Ac2Cd5Pt4,52.4778,43.7034,-8.7744
FeCu2Au,34.0706,30.4512,-3.6194
Ca2PaVO6,36.0135,32.0782,-3.9353
Ac2SnPt7,76.9294,59.5288,-17.4006
AcEuPt2,66.9682,55.4802,-11.4881
Ac2PtPb,67.1628,63.1219,-4.0409
Ba2Sn2Ru,9.1387,9.0844,-0.0543
CdMoAu2,32.3495,34.363,2.0135
SmPuAu2,47.4585,49.7009,2.2424
Ti2PRh2,14.1515,11.3995,-2.752
CaCo(AsO3)2,11.2065,10.2039,-1.0026
CaCr2AsO6,13.2617,12.4401,-0.8216
Bi3PRu,37.4276,38.4368,1.0092
LiReHg4,8.8936,9.3613,0.4677
Ac2LaPt,67.0556,59.1418,-7.9138
Zn3CdSe4,28.6911,24.5948,-4.0963
Y2Ga3Ir,10.2068,13.4755,3.2687
ZnCd3Se4,31.6174,27.472,-4.1454
LaIr3,37.5041,41.4957,3.9916
Te2PAu2,36.9266,36.4819,-0.4447
TePAu,31.4405,32.7362,1.2956
Zr2AlCu,45.9266,39.9639,-5.9627
LiHfAu,58.4983,50.4697,-8.0285
CaPr2PtO6,14.5777,10.7667,-3.811
ZnCdSe2,31.0352,26.5147,-4.5205
ZnCd4Se,22.3092,21.132,-1.1772
Tb2FeRhO6,4.0737,4.9668,0.8931
NaSnOsC2,42.7897,34.153,-8.6367
Ni2RuAu,19.2124,19.4414,0.229
InTeO2,23.6116,22.5156,-1.096
NiAs2Ru,22.6159,18.1607,-4.4552
In3TeO,27.0809,25.1898,-1.891
LiIn(TeO4)2,17.3471,15.3613,-1.9858
BaGe3Te,15.2757,14.9872,-0.2884
Cr2FeWO6,12.6808,11.9174,-0.7634
PtPb3C,62.5384,53.2452,-9.2933
Cr2FeTeO6,12.0168,9.8758,-2.141
BaGeTe2,22.99,23.2195,0.2295
Ce5DySb4,32.548,31.1133,-1.4347
TbY2ErIr4,31.912,35.3124,3.4004
Ca2PdRh2,19.7015,16.3882,-3.3133
Rb3AlBi2,16.8971,17.208,0.3109
HgPAu2,24.7801,25.8971,1.117
AcGa5Pt2Au,36.5222,31.6348,-4.8874
Cs12AsO4,17.2586,17.9023,0.6438
YVSbTe2,55.1201,45.7527,-9.3673
ThSnPt,44.2008,51.8855,7.6848
SmAlHgAu,18.3635,20.6408,2.2773
CaY6RuBr12,31.4333,27.7592,-3.6741
AcTm(SiPt)2,49.538,40.3359,-9.2021
Hf2CoPt,87.6724,63.4567,-24.2157
Tl(PRh)2,30.7485,26.0625,-4.686
BeSiTe,21.1844,19.5928,-1.5915
LiLa(SmAu2)2,35.7022,35.7651,0.0628
Sr(Cd2Ag)6,23.2113,20.7425,-2.4688
Y2TeBr,19.3432,20.1755,0.8322
TiCr2Pb,24.5606,24.5712,0.0106
SmAlAu,15.0071,21.4401,6.433
Y3Ga3Os2,19.9552,20.7662,0.811
LiBe2Ni,3.4031,3.795,0.3919
CdBi(PbO3)2,12.4558,15.0089,2.553
CdOs(PbO3)2,10.167,13.5011,3.3341
LiCeSb2,23.128,22.3181,-0.8098
TlTcRh,65.3557,55.9593,-9.3964
HfNbCr3,63.6869,47.9532,-15.7337
RbPm(CoO3)2,0.0,0.0025,0.0025
SrIr,0.0,2.3923,2.3923
Pm(NdSi)2,14.4447,14.6933,0.2486
CsCaV,50.8466,41.0944,-9.7522
AcAs2ClO6,2.0893,3.6116,1.5224
LaPt7,84.4177,60.2398,-24.1779
LiBe2Os,12.4901,13.7252,1.2351
AcSmAu4,45.9453,47.8461,1.9008
NaNi3H5,3.385,1.995,-1.39
ZrCuRh2,50.2043,40.4836,-9.7207
LaRe3,34.7905,35.6852,0.8947
ErCo2GeO6,5.5921,5.9424,0.3503
Ca2Ti2Pb,10.8647,13.901,3.0363
Cs2BaIrO6,8.7407,10.5975,1.8567
Sm(CuAu2)4,32.8605,34.4859,1.6254
Sr3Cd5Ge2,16.0213,14.8819,-1.1395
TaGaSb2,54.7629,45.0172,-9.7457
Pm2CoAsO6,11.4547,11.9974,0.5427
Sr2Ho2Mg15,6.4073,7.224,0.8167
Sc3TaSb,64.8153,52.3711,-12.4442
Y2BiTe,30.2268,32.0763,1.8495
CrPRu,14.9112,18.3263,3.4151
Ac2PuCoO6,10.2549,14.5447,4.2898
ScMnRhAu2,50.7832,44.0818,-6.7014
Sr3CaBi3,26.8483,27.9606,1.1123
CeYS2,21.6736,21.1557,-0.518
CrPRu2,34.6168,35.8292,1.2124
Sr12TlGa6,13.5843,14.2082,0.6239
Rb2CrMo,6.2318,7.7818,1.55
TiCuPb3,34.5331,35.7693,1.2363