Formula,E_hull_DFT (eV/atom),E_hull_ML (eV/atom),Delta (ML - DFT)
CaMgPb4,36.2847,37.2372,0.9525
NaNdPd10,18.6547,19.9534,1.2988
LiZrNiRu,30.1054,27.8477,-2.2577
Sc3AlTc,45.6135,40.5399,-5.0736
LiPtBr,41.9849,32.7046,-9.2802
ScHgS2N,32.5169,26.4897,-6.0271
NiPtRh2,42.6998,35.3424,-7.3574
CoGeMo3,13.9282,15.9386,2.0104
Co2GeMo,9.2657,12.9852,3.7195
Ce(ErTm2)2,29.49,32.6951,3.2051
Sb2MoAs,29.3211,25.7432,-3.578
YTeAs2Br,17.7948,17.7404,-0.0544
VInAs2Se,55.2275,47.0838,-8.1437
Mg2CoRe2,15.5121,17.0063,1.4942
SbMo2As,21.5756,21.9481,0.3725
Y2AlIrSe,36.5891,31.3628,-5.2263
CsLiAuSe2,29.6368,27.2319,-2.4049
AcYAu4,43.8022,46.2071,2.4049
Mn2ZnCo,60.229,46.8793,-13.3497
NaCdCu4,11.8473,12.1788,0.3315
K2ZnCu,9.7649,9.3389,-0.426
YAsPtBr2,28.2683,23.141,-5.1273
EuZnO2,14.4154,12.5416,-1.8738
Sr3Ce2YAs6,17.453,15.3896,-2.0634
YMnRe2Pt,58.4815,49.0498,-9.4317
AgB3Mo,12.0205,12.0153,-0.0052
CeSmTc,40.5061,40.8491,0.343
PuVNi2,53.4777,48.7672,-4.7105
K(GeSb)2,20.3928,17.763,-2.6298
Na4La2Bi3H2,32.7574,28.7057,-4.0517
VHg2AsSe,49.6708,41.2118,-8.459
BaNa3Sc,16.839,13.9625,-2.8765
CaCu4Si,11.0969,10.2303,-0.8666
BaScSi2,26.074,21.5539,-4.5201
Tm4AgHgAu2,30.385,31.4483,1.0634
BeFe4Mo,24.0127,20.1226,-3.8901
YCu(Ni2Ge)2,30.9696,26.0188,-4.9508
La4ReSe,49.805,36.3615,-13.4435
NiPd3Pt7,62.6249,43.925,-18.7
CsScSn,15.5589,15.705,0.1461
La2PrI,29.9481,22.4805,-7.4675
BaScSi,29.3175,26.169,-3.1485
Y6SnTe3As2,23.0924,21.7521,-1.3403
BaY3Ir,30.6056,28.8599,-1.7457
Ta2NiSe7,35.1146,30.4355,-4.6791
Ca(YSb)2,22.4919,18.6278,-3.8641
ZnCoAu4,38.8512,36.5466,-2.3046
LaRh4Cl,41.9956,30.2262,-11.7694
ZnCr2Ir,21.2681,18.4712,-2.7968
CaZnAs4,10.2717,9.6671,-0.6046
ZrBeO3,9.017,7.65,-1.367
Na(AsOs)2,25.8788,27.0372,1.1584
Zn2CrIr,22.1926,19.4633,-2.7293
BaY3Ir,30.2775,28.8599,-1.4176
AsW2,20.8771,30.2754,9.3983
Na2Tm(WO4)3,12.864,15.9153,3.0513
NdTm4Co,25.5036,28.0189,2.5154
TlRu2,22.8108,27.4974,4.6866
Na3Zr(VTe3)2,56.2017,46.9786,-9.2231
Ta2NiSe,31.9994,33.3442,1.3448
Na12(CuO2)7,9.7461,8.8189,-0.9272
SrSb2Pt,47.4476,35.6913,-11.7563
SrSi2Ag,29.538,20.9383,-8.5997
Ta5Ge3H,14.3647,19.3948,5.0301
CeNp2MnN5,28.8938,28.7141,-0.1797
TlNi2Ru,20.2631,23.493,3.2299
Tl4NiRu,38.7934,40.043,1.2496
CoNiAs4,15.4922,13.6987,-1.7935
NaTlRhPb,44.272,40.4149,-3.8571
NaCr2NiPt,37.1667,29.6505,-7.5162
Eu2YVO6,25.6022,23.4945,-2.1078
ScCr3H8,5.2388,4.3133,-0.9255
ZnSb2Ir,39.2827,32.2325,-7.0501
Cd4PPb,22.4658,23.4623,0.9965
La4PtCCl2,44.5112,29.8542,-14.6571
ScNi4Mo,19.2886,18.4585,-0.8301
CePm3N4,11.3382,14.4177,3.0795
Ce4Pt,32.0435,29.8039,-2.2395
GeBi6,48.7662,49.3972,0.631
PrBeAu3,26.8841,28.9409,2.0568
Np8HRu3,51.1388,53.28,2.1412
GeBi,5.8762,11.3928,5.5166
Pt2RhBr,61.3635,42.863,-18.5005
V(H3Os)4,17.7146,16.7523,-0.9623
Zr5HPd3,52.721,43.3679,-9.3532
Ti3BePb,13.9497,15.2931,1.3434
PtPb2W,59.0885,53.7587,-5.3298
Hf2BiIr,87.9082,71.9789,-15.9293
Er2Cu(H3Pt)2,24.2561,19.5623,-4.6938
In2Ge2Pb,18.7916,20.943,2.1514
CaSiRh4,39.3407,28.0323,-11.3084
VZn2Pb,49.6174,43.2071,-6.4103
CdCoPd4,17.3865,18.472,1.0855
CoSb4Pd,30.1053,23.877,-6.2283
CoOsRh,32.4096,32.3443,-0.0654
Ba6Nb9CoO30,26.0955,21.7386,-4.3569
AcPr(ThAs2)2,27.5649,30.5443,2.9793
YCuRh4,44.5379,33.0031,-11.5348
La2Zr5Sb3H2,60.0838,46.5812,-13.5025
CsPaI6,27.5875,27.92,0.3325
Be2VSe,39.9969,33.5556,-6.4413
LuAl4Co,11.4989,10.4015,-1.0974
Ca9Sn4H,8.5817,9.813,1.2313
Ca2InSe,36.2529,31.323,-4.9299
YSb2As,28.0062,24.197,-3.8092
ZnSb2Mo,28.6125,24.9552,-3.6573
NaCa3(LaSe3)2,55.0492,42.3105,-12.7387
BePbSe2,37.0858,34.1985,-2.8873
Pr2Ta2Si2H,12.8671,14.2136,1.3465
PmPr4Co,2.316,4.5218,2.2058
Tb4PrCo,17.9331,20.6909,2.7577
Pr4CoRh,-0.0,0.8514,0.8514
CaInSe4,50.0657,40.5785,-9.4871
LaY2NiBi,71.4981,60.6912,-10.807
NaNi2OsAu,26.5643,26.6079,0.0435
CrCu2Sb,19.4796,15.6038,-3.8758
InFeTc2,47.5109,42.5824,-4.9285
UNi10Pd,12.3759,14.4963,2.1204
Be2PbSe,25.456,24.2384,-1.2176
Tb5Si3H,13.5793,13.6903,0.111
YErTmSc2,11.6702,15.1836,3.5134
BePbSe2,37.1532,34.1985,-2.9547
Na(CoAu)2,23.8054,24.101,0.2956
FeSbPt4,73.9443,51.8163,-22.128
CsTe,23.9598,24.7801,0.8202
PaZn4Fe,18.3195,18.6258,0.3064
YbFe7,4.7358,6.7669,2.0312
ScNbCd2,46.3689,41.4589,-4.91
Zn(CrGe)2,4.0399,4.8315,0.7915
YScW2,34.775,29.0331,-5.7419
CoSb4Pt,41.1358,30.6142,-10.5217
ZnCrGe2,10.1591,10.4584,0.2993
In3Tc,34.0553,32.2413,-1.8139
Cr2Ag,11.0984,9.7494,-1.349
ScCr3H8,5.2252,4.3133,-0.9119
ScNi4W,16.1509,14.671,-1.4799
TlFe2H7Ir2,11.7139,12.9331,1.2192
NpBiSb,49.9241,50.7065,0.7825
Ag6I,30.7759,25.1735,-5.6023
In3Tc,38.3582,32.2413,-6.1168
Sr2Cr,15.3105,12.9549,-2.3556
CeU3N4,27.8958,30.959,3.0632
CoPtSe4,47.7527,37.3974,-10.3553
ScCrH4,2.2382,1.9258,-0.3124
VSnAs2,42.9507,37.3841,-5.5666
CoReSe4,39.6197,34.7299,-4.8898
CsLi(AuF4)2,14.7443,14.2093,-0.535
AcPmNi10,12.3624,14.5003,2.1379
CoRuSe4,30.1372,26.2228,-3.9144
Zn(H3Os)2,10.6123,11.9034,1.2911
Na4Nb3O10,29.1588,23.8545,-5.3043
AlMoAu4,38.3516,38.3565,0.0049
Na4Ta3O10,11.2909,10.4653,-0.8256
Mn(H2Ru)2,13.2402,13.6996,0.4594
BaSr2La,19.8027,16.4643,-3.3384
Li3ICl,8.4238,7.3468,-1.077
P2OsN,33.4066,28.8343,-4.5723
Mn2Ru2Rh,56.302,46.3258,-9.9761
Zr3CrH8,24.9935,19.9208,-5.0727
Nb3Al2H,50.299,42.7531,-7.5459
CsPaI4,25.5679,26.6683,1.1003
BaSrLa2Fe,32.7091,22.6847,-10.0244
Lu12Mn3H5,19.9832,18.3747,-1.6086
CeIBr3,11.1888,13.1729,1.9841
K2LiSi2,12.4837,10.1147,-2.369
Sr2Pb2I,27.1761,29.3473,2.1711
CoSn4Au,23.3448,23.8074,0.4627
CoMoPt2,49.958,37.3193,-12.6387
SmHo4Co,24.0192,26.5031,2.4839
Zr8H2C3,73.9531,56.7262,-17.2269
Cd5P,16.9226,17.6136,0.691
CoMoPt,36.9912,30.6494,-6.3417
PuCuBrO4,6.6575,6.9609,0.3033
SrBePt3,54.1793,35.1448,-19.0345
Sr2Re2I,39.1905,34.2773,-4.9132
Y2ScTl2,21.4443,24.9027,3.4584
Th4CoTc,52.5333,53.9946,1.4613
CoTe4Ir,36.1411,35.8381,-0.3029
Tm4CoTc,30.811,31.569,0.758
PtPb2W,58.8568,53.7587,-5.0981
Tm4CoOs,21.9728,25.7709,3.7981
Pt2W,72.8364,55.3303,-17.5061
VPbW3,62.5839,58.496,-4.0878
NaTlTcCl2,35.6662,31.888,-3.7783
YInNi,45.1643,41.9916,-3.1727
LiHf(ScS3)2,55.6951,43.6779,-12.0172
CeHo2Re,31.1103,34.9156,3.8052
Ba2Sc(SbS3)2,41.9644,32.5025,-9.4619
In2Ga2Au,20.7951,22.0052,1.2101
Tm(H4Ir)2,10.609,11.5725,0.9635
MnCo7H12,7.444,7.1982,-0.2458
LiY2TlP,26.9611,23.4002,-3.5609
SrFe3Si2,9.4937,6.7321,-2.7616
PuH12Ru5,8.6635,9.3878,0.7243
YIn5Ni,37.6491,34.9213,-2.7277
PuH12Ru5,8.6487,9.3878,0.7391
ZnSi2Sn,14.2104,11.4725,-2.7379
ScBe2Ir,20.0858,16.9638,-3.1221
Ce2H5Ir2,14.7855,16.0571,1.2716
Tm(H4Ir)2,10.528,11.5725,1.0445
Cd2GeRu2,10.9865,14.5072,3.5208
P2OsN,33.5978,28.8343,-4.7635
Ni2PtBr,29.667,23.8323,-5.8348
SrScRh2O,73.8806,61.5695,-12.3111
CeSm(NiSn)4,24.703,20.042,-4.661
Np6HPb2,58.7282,60.9126,2.1844
PrYInNi,47.5699,42.116,-5.4539
Y2InNiN,65.1209,55.6055,-9.5154
CaVTe2,54.2998,47.062,-7.2377
Cr3Rh,10.1218,10.4962,0.3744
Ca2Co3Sn,14.9418,12.55,-2.3918
Ca4BeIr,21.5315,16.7081,-4.8234
Mo4PRu,21.6253,19.9839,-1.6415
Co2TcNi,46.4896,38.8204,-7.6693
Tl2BiAuBr6,26.6496,27.6259,0.9763
NiMoCl3,21.1708,17.2321,-3.9386
CoTc2Ni,68.1354,56.5943,-11.5411
TbCrH6,4.3089,5.4596,1.1507
Y3In3Si2Ni,49.1115,42.4326,-6.6789
YIn2NiPb,51.506,47.3199,-4.1861
Er2Ga10NiPd,14.4393,14.3684,-0.071
ZrPW2,102.1514,85.5938,-16.5576
ScV4Sn,95.4946,74.7139,-20.7807
YNiPb2,63.1966,59.6262,-3.5704
Co(BMo)3,0.0,6.7843,6.7843
ScInSi2,25.8946,23.4045,-2.49
Ga5Sn2,12.0118,13.0855,1.0737
PrSbSe2,33.7515,27.8218,-5.9297
BaAcGd,31.404,33.9427,2.5387
Dy3YTm5,23.1136,25.8994,2.7858
Mo3PI,22.0983,20.1307,-1.9677
Ca2Sc2Sb,15.1392,9.5943,-5.5449
Y2Ni2Pb,76.7899,67.6994,-9.0905
K2TiTe,14.6445,15.4982,0.8537
Ta2H4Ru3,13.5131,16.5365,3.0234
TcAs2Ir,39.0732,38.0292,-1.044
Sc2Sn2BRh4,40.2868,32.017,-8.2698
Th2Te2H5,23.7173,24.1024,0.385
Y2AlV2,63.0903,49.7817,-13.3086
Pa2Ge,39.4327,46.0943,6.6617
Rh2AuSe,48.477,39.5724,-8.9045
Y2TlNi,75.6754,67.5614,-8.114
RhAu2Se,48.2993,42.9875,-5.3118
SrTi2Mo,5.7794,7.7295,1.95
GeSe2,31.7213,27.2492,-4.4721
Tc2Ge,56.3284,50.1641,-6.1643
PtPbW2,55.5573,51.1231,-4.4343
TaCoOs4,49.4552,46.9861,-2.4692
Be2ZnHg,8.0513,5.6933,-2.358
Na5Au,26.498,23.005,-3.4929
Cu(PtBr)2,42.3457,29.6141,-12.7316
NdTmBr3,12.1615,16.489,4.3274
ScW2Br,25.7645,27.6555,1.891
Y6TlNi,44.9612,41.8011,-3.1602
TlTc2Ni,61.2195,56.2682,-4.9512
InGa2,12.3064,13.8242,1.5178
Cu2Pt2Br,43.784,31.0032,-12.7808
BiRuRh2,47.4354,39.568,-7.8674
CaCo3Sb,23.4195,16.687,-6.7325
Tm6NiIr3Rh2,34.3227,33.6265,-0.6963
LaHoCo4,17.2556,16.7311,-0.5246
Pt2PbW,67.9356,55.6514,-12.2842
Ac2PuScS6,49.2217,42.9795,-6.2422
Ba2PuScS6,37.2247,30.699,-6.5257
Ac2ScCdS6,46.0183,39.1459,-6.8724
ScPb3Au,42.4192,43.5591,1.1399
InFeCo2,22.1488,17.711,-4.4378
Ho(Re2Sn)2,32.7713,35.3291,2.5578
PaAsBrO4,4.1465,7.8122,3.6658
Y2Si2Pd,31.546,28.2534,-3.2927
CaAg4Rh,29.9101,24.1466,-5.7636
In4FeCo,21.9771,19.9708,-2.0064
KYBr,11.8857,13.9715,2.0858
Sc2PbAu2,31.0101,32.7319,1.7218
Sc2CdRhO,65.5266,56.9772,-8.5494
Sc2InSi2Rh5,35.9512,27.6972,-8.2541
ScPbAu,29.7538,32.9488,3.195
SrGd2Al,18.956,21.1691,2.2131
MnOsRu4,34.8923,34.8187,-0.0735
ScSb,22.6634,20.4257,-2.2377
POs3N,43.6386,40.1189,-3.5197
Ag2SnSb,32.1725,27.065,-5.1075
YTlNiS3,58.0894,48.1263,-9.9631
IrC3Br,50.9695,38.6641,-12.3054
Na3Pb2,33.3992,31.5166,-1.8826
Ag(SnSb)2,29.0627,24.5728,-4.4899
LiRePb4,42.7829,43.8371,1.0542
Cs3SrSn,22.0954,22.4663,0.3709
Cr2IrC,37.7988,35.6161,-2.1828
SrGaSn2,15.5583,17.5554,1.9972
NiOs2Rh,28.7164,30.4726,1.7562
Zn4CuRu,9.4521,10.9557,1.5036
Sc6SnS8,47.5151,40.6626,-6.8525
Tc3TeMo,71.0676,60.3425,-10.725
YPa2CuO8,17.5349,19.0579,1.523
NaCoAs2,12.7154,12.3456,-0.3698
Ac2ScInS6,45.6628,38.9498,-6.713
Ca3SiI2,15.0328,13.3405,-1.6922
YTm6In,27.7615,29.897,2.1355
DyPaNi10,12.6968,14.7227,2.0258
TcTeMo,53.4733,47.1323,-6.3409
NdEr4Co,24.6548,27.1179,2.4631
Sr3RhBr,17.5737,15.2155,-2.3582
ScNiW4,29.2343,32.7742,3.5399
Ta2NiIr5,36.5464,40.178,3.6315
Ca4TaBe,15.6954,14.1239,-1.5715
NaPb4,47.0138,47.4984,0.4846
Co4NiPd,22.4633,18.2331,-4.2302
H4Ru2Au,7.0674,9.5194,2.452
YSi2PdPt5,62.8601,43.9783,-18.8818
Na(ScAu)2,20.7873,22.3722,1.5849
POsN3,40.4836,32.1318,-8.3517
AcY2Sn,38.6868,35.2636,-3.4231
YZnCl2,41.9993,41.2359,-0.7633
Cs2KDyBr6,13.8736,14.8649,0.9913
EuCuPb,29.078,30.8987,1.8207
NpNiAs,16.0013,21.0531,5.0518
Ga3Se4,30.663,25.5494,-5.1137
Rb4H4Rh,6.1834,4.7717,-1.4117
RbSc(SnS3)2,37.2307,29.3255,-7.9052
Th3(NiAu)2,43.0136,46.2686,3.255
NdH8Pd3,6.3916,7.5088,1.1172
CsSr2Sn,17.8317,19.3398,1.5081
Th2Sn2H5,14.5606,16.9364,2.3759
Th2Sn2H5,19.0031,16.9364,-2.0667
Y2PuUP4,35.3488,31.5059,-3.8429
RbCuHRhSeS,28.1679,21.2953,-6.8726
MgMnBi2,49.4451,46.2272,-3.2179
In4WCl,21.1198,22.4442,1.3244
Pu3Ga4,35.6747,37.3617,1.687
YBiPt4,70.4272,51.7579,-18.6693
Cu2TcHg,27.0279,24.8001,-2.2278
PrInBi,18.2572,21.7832,3.526
La4MnRh,59.9123,41.7879,-18.1245
PmNd4Y2Sc,21.9738,22.4885,0.5147
Y(AlH3)4,5.1915,4.5458,-0.6457
HfSc3Cr,41.057,30.5814,-10.4756
Nb(H3Ir)2,25.539,23.7546,-1.7845
Nd2ScMnS6,45.0445,36.2464,-8.7982
Nd2Ni3Ge4Os,19.4135,17.3991,-2.0143
In4Ga3,14.9725,16.3377,1.3651
Zn5CuNi6,6.6375,8.3606,1.7231
YNbNiOs,87.3347,77.0102,-10.3246
AlHW2,20.0394,25.5238,5.4844
MoWCSe2,45.1962,36.9722,-8.2239
SmNpSe3,39.4631,38.4108,-1.0523
Hg2SeI2,17.4817,15.7852,-1.6965
Ba3AuBr,7.8397,9.092,1.2522
NaHf2CrF,68.039,49.1896,-18.8494
TmSc2Ag,18.014,18.2177,0.2037
Hg3AuBr,7.6153,9.2945,1.6792
CsPdBr3,11.4973,12.6759,1.1785
YTiNO2,25.7349,21.9187,-3.8162
TiVP,45.1668,37.7936,-7.3732
Sc5Tc(SnRh)2,39.6012,32.0261,-7.5751
PmYSeN,47.7657,41.9948,-5.7709
Tb3AgC,17.7267,20.512,2.7854
Ti3VP,20.9894,19.7438,-1.2456
Cs2PaIBr6,15.7139,18.6184,2.9045
NdYNiOs,58.0419,54.7354,-3.3065
SrZrSi,57.5409,43.5417,-13.9992
Na2SiBr,16.2379,13.575,-2.6629
KBe2,2.899,5.3561,2.4571
TmSc4Ag,8.3641,9.5883,1.2242
NaLi2P2Pt,28.1634,18.2952,-9.8682
LaSc3Br,17.3504,13.5004,-3.85
Ho(AlH3)2,3.8111,5.0573,1.2462
BaNaLiTl,20.8275,19.7264,-1.1011
AlPtPb3,50.7623,45.4887,-5.2736
TmSc4Ag5,20.4738,18.928,-1.5459
Y4AsOs,20.6788,20.6468,-0.0321
Hf3GaC,90.2394,66.2549,-23.9845
Er10Ni28As19,23.4959,19.4228,-4.0731
Al2PtPb,37.1068,31.5251,-5.5816
CeHAu3,28.625,30.9651,2.3401
RePW2,87.5613,78.346,-9.2153
MnZn4P,22.5642,20.333,-2.2312
NpH8Pd3,10.4188,11.3021,0.8833
Ac2PmScS6,45.2205,39.0474,-6.173
Yb2SnRh2,31.9988,28.3504,-3.6484
PtRh,69.2908,50.2278,-19.063
Sr2GdTl,26.7026,28.1733,1.4706
KRb3Cl6,4.6199,4.8068,0.1869
YbSn2Rh,30.9224,29.2327,-1.6897
ScOs4Au,36.8162,40.2946,3.4784
ZrBe2Ag,33.7712,27.7922,-5.979
Nd3NpNi34,9.1998,10.4433,1.2435
TmNpNi17,4.4804,7.352,2.8716
YbSnRh,24.0906,23.2363,-0.8543
PtRh,70.3909,50.2278,-20.1632
GdNi3,0.0,2.7336,2.7336
Th2Ni2Au,37.7806,41.5869,3.8063
Rb2Cd2Cl5,5.7435,6.0136,0.2702
AgHPtPb2,45.2682,38.518,-6.7502
Zr2BeAg,57.7323,45.9897,-11.7426
Tm5(AlPb)2,24.4214,27.4454,3.0239
Tm3Ni2Sn3Rh,28.4639,25.0331,-3.4309
Hf2TaNi9,31.1972,27.3871,-3.8101
PtRh,62.6991,50.2278,-12.4713
Na2MnV,71.8271,59.0119,-12.8152
ErThNi10,12.7484,15.0089,2.2605
Al2V5Mo2,79.8879,62.8815,-17.0064
Nb2AuC,89.9166,76.1046,-13.8121
Hf2Co3Re,57.2899,46.0611,-11.2288
Rb2LaBr6O,17.5131,16.9333,-0.5797
Na3Y2TlO6,23.7139,21.4498,-2.264
Co2Re2Pd,15.1315,19.8859,4.7544
VAs2C,46.7104,37.2111,-9.4993
V3AsC,91.1768,70.0559,-21.1209
CaZr2,61.8017,51.7038,-10.0978
AlTcAs,45.6813,38.0426,-7.6387
UB4W,8.7887,15.4732,6.6845
KAg3I4,24.3509,22.4934,-1.8575
YCdAg2,23.7217,21.949,-1.7726
UCo4B,7.3192,12.423,5.1038
CaBeCo4,16.3496,11.4518,-4.8978
KCd2CoHg,11.3397,11.74,0.4003
LiMn4Si,72.5501,58.5435,-14.0066
ReSbP2,43.8426,35.3395,-8.5031
ZrSb4Cl,47.2026,36.916,-10.2866
CrBW,5.7317,12.8035,7.0717
SrZrTe2,48.2439,43.7424,-4.5015
SbPOs2,33.5679,33.5229,-0.0451
Pr5(Nd6Tl)2,19.655,20.8284,1.1734
SbPOs2,33.6792,33.5229,-0.1563
Tm2Fe(PH2)2,14.3726,14.6365,0.2638
PIrCl4,16.7031,14.4961,-2.207
Sm2Ni2Pt5Au,48.8448,36.2915,-12.5533
FeRuSe4,47.8628,36.0188,-11.844
Ta3CN,32.3929,33.2675,0.8746
Tl2Ge2Pb,34.7194,35.9915,1.2721
TlGaGe3,18.4212,19.2299,0.8087
La2NiW,39.3224,31.0504,-8.272
Ga2GePb,19.7784,21.4019,1.6235
FePtAu2,46.5218,40.8985,-5.6233
AgCO3,12.1295,7.0471,-5.0824
TlGePb2,41.4755,43.2834,1.8078
Tl4SiMo,39.9828,39.674,-0.3088
MnIrRu4,38.0158,34.7074,-3.3084
BaCaRu4,12.028,14.5121,2.4841
LiHg4Pt,16.5329,11.9397,-4.5932
ZnCuPb4,38.0105,38.7714,0.7609
La2CoRe,31.3028,26.858,-4.4447
YScSb2Te,31.4928,26.6755,-4.8173
Er2BPd6,17.6276,19.7345,2.1069
BRu,1.8974,8.1367,6.2393
Y2ZnI,16.6081,16.2163,-0.3917
BiAsC,37.1169,32.1544,-4.9625
Ir4AuCl,38.6781,40.9156,2.2375
Ac2CrBO6,13.1366,14.4599,1.3233
PaCu2BO6,11.3181,10.2171,-1.101
Y2PBr2,20.1909,17.7434,-2.4475
Y2Al12Au7,24.0689,23.0384,-1.0305
V3SbC,89.8144,69.0696,-20.7448
CsGa2GeOs,18.3799,19.8788,1.4989
Tl4ZnNi,36.8578,37.6881,0.8303
Sr3SbCl3,26.4739,25.3846,-1.0892
CaReRu4,18.7083,22.1018,3.3935
NaEuGdGa,22.5301,23.1033,0.5732
YGaAs2Br,13.2862,11.7083,-1.5779
Hg4IrCl,8.4869,9.2392,0.7522
TePtBr3,35.2547,29.0311,-6.2236
HfThNi10,22.3084,20.7956,-1.5127
Al2Zn2Te5,25.4946,24.5446,-0.95
SbMo4Cl,21.0651,19.8069,-1.2582
Cs(TeP)2,23.1697,23.1995,0.0298
Th3PtC,60.9458,54.8582,-6.0876
SiBiC2,42.3998,33.8484,-8.5514
Cu2P,7.4039,9.028,1.6241
ZrSiOs2,48.9026,44.5135,-4.3891
Fe5NiAs,26.3629,20.7864,-5.5765
Ta4Os3,38.7091,42.5782,3.869
LiPtN2F,21.3692,17.3927,-3.9765
Na2YErSe4,33.9535,29.2333,-4.7201
CoWI2,20.3051,21.8481,1.543
Ta3Os,37.7863,43.3468,5.5606
Ta2AlAs2,21.8467,22.0681,0.2214
AlP2Se,31.0761,25.0586,-6.0175
Hf3CS,99.7945,69.9291,-29.8654
Na3YEr3Se8,35.8098,30.1451,-5.6647
TcAsIr2,47.7136,47.4868,-0.2268
TcAsIr2,47.5358,47.4868,-0.049
TaOs,5.4468,19.2795,13.8327
TaOs3,5.7755,18.9609,13.1854
La3MgAs,35.6981,23.4891,-12.209
TaOs,27.9798,19.2795,-8.7003
Y4ErPd5,30.4257,26.9178,-3.508
CoReNi,43.6757,37.1772,-6.4984
BaPr3Ir,5.6245,7.4105,1.786
LiNp2ScS5,42.9466,36.9296,-6.017
Al5Ag3,13.6379,12.2375,-1.4004
BaLaB12,3.7783,4.2628,0.4845
PuInNi10,14.4392,14.7732,0.3341
Al5(ZnRe)2,22.1283,18.2011,-3.9271
Pr3SmIn3,5.5613,9.3728,3.8115
CoRe2Ni,42.2965,38.5112,-3.7853
ZrAlW,47.289,43.383,-3.906
NbAg2C,67.9528,53.709,-14.2438
Sr4LiTc,25.5883,23.9471,-1.6412
ZrAl2W,35.6742,35.0434,-0.6308
ZnCoPt4,66.801,44.2087,-22.5923
YPuTa,54.5143,53.795,-0.7193
TlNi3Rh,25.3923,23.6154,-1.7769
Tb(NiPt2)4,58.7128,41.4636,-17.2492
TlNi2Rh,28.2691,26.5498,-1.7194
Y2BPd,66.4196,55.5485,-10.8711
CeNbNi2,50.0684,43.1733,-6.8951
ZrAl2W,35.6766,35.0434,-0.6332
YNiAg2,57.2232,48.6398,-8.5835
Co4MoAs,14.4337,14.0101,-0.4235
ZrAlW2,44.7375,43.2091,-1.5284
SiAg4Ru,28.9938,23.1598,-5.834
BeAsBr2,9.4185,8.3137,-1.1048
LiTh(AsAu)2,29.5681,31.9198,2.3517
Ac4CoAu,47.7256,50.9243,3.1987
CaY2Nb,45.024,36.7225,-8.3015
Y3Pu2TaN6,45.0067,40.5022,-4.5045
MoAu4Cl,37.2014,37.1747,-0.0268
SiRuRh4,45.771,33.4797,-12.2913
AlCuOs4,30.8784,33.1345,2.2561
CdRuBrO4,4.9716,4.2423,-0.7293
Co2MoAs2,16.5334,14.6594,-1.874
Sr4ZnCo,16.8626,14.0912,-2.7714
NaSbN2,12.5925,12.2057,-0.3868
CuTcBrO4,11.1854,9.0146,-2.1707
BeAs2Br,11.9182,10.4773,-1.4409
PmScRhAu,32.3346,30.1444,-2.1903
SmNi(TeO4)2,15.1901,12.4802,-2.71
ScCu3Pb,28.8945,25.9826,-2.9118
EuPbAu2,43.3097,45.2974,1.9876
CoMoAs2,14.9534,14.5429,-0.4104
Tl4ZnCo,41.5697,38.6173,-2.9524
BeAs2Br,12.1818,10.4773,-1.7045
Sm3PtC,25.1901,22.8343,-2.3558
Be2Re,6.673,15.174,8.501
Ac2ZrScS6,59.2625,50.1364,-9.1261
BaZrTa2,44.0921,42.045,-2.047
Tm3Tl3In,33.9869,35.9567,1.9699
NaSiAg2,22.9959,18.1605,-4.8355
Pu2PbSe,60.522,60.4857,-0.0363
Be(AlMo)2,18.0509,14.0935,-3.9574
TbTm(NiAs)2,26.5929,24.0515,-2.5414
Sr5Cl,17.5039,18.4887,0.9849
MnNbVNi,119.4117,99.807,-19.6047
Th2NiGe4Ir3,31.5644,32.5637,0.9994
Er2TmCdRh4,37.3137,30.829,-6.4846
AcGa2Ni,16.8031,21.8049,5.0018
BaZr2Ta,59.2381,49.8756,-9.3626
CsZrN2,30.7683,29.0489,-1.7194
Na(Al2Ag)2,14.1737,12.5522,-1.6215
Tm7TlIn5,27.836,28.9939,1.1578
Zr4AlTl,74.7756,60.9217,-13.8539
Y4BeTl,20.6961,19.6671,-1.029
Zr(NbS2)3,78.2377,59.6389,-18.5989
AcNd(YS2)2,41.0228,34.7772,-6.2456
Ga2BrO2,28.9056,24.5688,-4.3368
Na(AlAg)2,15.5798,14.1453,-1.4344
NaAlAg4,25.5921,21.1449,-4.4472
BeCr4Os,17.0801,14.8352,-2.2449
CdSbPb3,44.9195,43.1099,-1.8096
TbPbAu4,44.355,46.4745,2.1194
NaCa2Te,16.1165,16.7874,0.6709
ThB2Mo,20.6146,25.4245,4.8099
Ti3PdC,9.8324,11.594,1.7616
Cd3Au8,39.5116,40.6319,1.1203
V3GeC,82.4276,63.8976,-18.53
Na3ZrSb,44.6215,34.7968,-9.8247
CeAlSb,8.5183,10.2784,1.7602
BeCr4Rh,14.2688,12.233,-2.0358
LaTaNi10,12.3751,12.7556,0.3806
Cu2SeCl,17.072,16.4835,-0.5885
CrTc2Pb,62.2928,56.2586,-6.0342
GaReTc,46.9485,45.723,-1.2254
Co2TcPt,48.6854,39.9555,-8.7298
CaTc2,56.7449,53.7206,-3.0244
BaAg2BSe4,31.4112,25.9155,-5.4957
K2CrMo,13.9064,12.7198,-1.1866
K2Pm(OsO4)3,8.8912,12.2505,3.3593
Th3ZrSn5,37.6227,38.0377,0.415
Ac4CoCu,51.0544,50.8135,-0.2409
Hf4CoCu,108.229,78.788,-29.441
MnPb3Au,61.5747,58.1776,-3.3971
LaCu4Si,16.1871,13.3925,-2.7947
SeBrO2,11.7984,10.4228,-1.3756
KSc4Tl,14.2626,15.1674,0.9048
Co2TcPt,48.7749,39.9555,-8.8194
VSbP2,39.4312,32.009,-7.4222
YErTmTh2,35.9316,39.5578,3.6262
Zr4TlCo,75.7965,61.7612,-14.0353
CoTc2Pt,70.2878,58.707,-11.5808
K2BeC,18.3311,18.0655,-0.2656
YEr3(Tm3Th)2,34.8565,36.505,1.6485
BP(Pd3Au)2,20.3214,22.0217,1.7002
KSc5,6.7469,7.7094,0.9625
ZrNiOs2,47.355,47.9207,0.5657
Y3Er7Tm,25.5387,27.4326,1.8939
LaThNi10,14.6319,15.1756,0.5437
HfSeNO2,38.9513,29.0177,-9.9335
BaPm(AsPd)2,12.6212,14.5279,1.9067
Ca(CrTe2)2,32.7485,28.3197,-4.4288
GaCoI4,14.985,16.8314,1.8464
Ca4Cr2Te,22.4911,17.4551,-5.036
Ca2CrTe,24.7654,20.8844,-3.881
Ca3CuAg,9.187,8.4868,-0.7002
BaAgAs,13.6244,12.646,-0.9783
FeRe2,42.1636,40.8314,-1.3322
BaMnAg2,40.5861,33.7134,-6.8727
Tl2CrSb,35.1303,34.4431,-0.6872
KRu3Pb,25.2102,25.9507,0.7405
Ni4PtCl,20.275,16.8048,-3.4702
TlCu4Si,16.3833,16.4712,0.0879
Sr4CrSb,19.8075,17.4566,-2.3509
Ce4InCo,14.95,18.5969,3.6469
Pu3Ni2(As2Rh)2,39.5419,36.0071,-3.5348
ScTl2In,29.5245,31.5801,2.0556
CaCuSnCl5,13.0021,12.3441,-0.658
Li2PrYTe4,21.3997,21.0167,-0.383
HoNbNi10,19.1419,18.7318,-0.4101
Sc2Tl2B,18.481,21.1022,2.6212
HfBi2IrRu,67.5097,56.5008,-11.009
NaZrNi3,29.3506,25.3462,-4.0045
La4Y2Pb3O2,48.3128,40.3225,-7.9903
TiCrC2,49.1557,40.3682,-8.7875
CuSiAg4,25.6614,20.9888,-4.6726
Zn2BiW2,29.9965,32.8013,2.8048
TaIn4Cu,21.8591,22.7062,0.8471
U8NiIrOs2,56.7068,59.8202,3.1134
CoIrN2,59.6701,55.6378,-4.0323
CaSmAg3,21.6206,19.4578,-2.1627
Ca3ZnHg,3.4992,4.2222,0.723
AlCoBr,23.7274,17.0377,-6.6896
LaUNi10,14.939,15.3933,0.4543
CaVGeO5,20.4102,17.7253,-2.6849