Formula,E_hull_DFT (eV/atom),E_hull_ML (eV/atom),Delta (ML - DFT)
RePPt2,75.8074,57.3661,-18.4413
Y3Fe2Hg,21.7535,19.2975,-2.456
Sr2Mg2Sb3,19.5088,18.5847,-0.9241
LiAc2ErTe5,34.7968,35.4787,0.6819
CsTl3Zn,34.9236,35.8408,0.9172
RePPt2,76.0041,57.3661,-18.638
NdGaPt2,52.2759,41.1727,-11.1032
YFeHg3,14.753,11.6327,-3.1203
Hf(TiFe)2,25.3312,17.879,-7.4522
NaFeF2,17.7429,16.5953,-1.1476
HfOsSe3,66.6201,51.7518,-14.8683
BaSrCaAc,22.5742,22.6375,0.0633
Cs2PuO4,15.5743,18.416,2.8416
Cs6Ge2O7,5.5671,5.9827,0.4156
Cs2DyO3,5.5623,8.3872,2.8249
GdLuAu2,38.504,41.0326,2.5286
YLuZnHg,22.5219,21.8611,-0.6609
Th2RuPt,58.7861,55.2086,-3.5775
DyYZnHg,20.959,20.127,-0.832
ZrSn2Ru,38.9619,37.5681,-1.3938
CaAcLa3,40.9904,33.2452,-7.7452
Ac2Pm3Mg2,29.8315,31.9515,2.12
Zr2GeOs,53.8899,51.7738,-2.1161
TbDyRu,23.0471,26.5607,3.5137
K2VBi,52.468,44.1306,-8.3374
LiSbMo,20.4292,19.7837,-0.6455
SmZrOs,37.0686,35.4261,-1.6424
Nb(NiGe)2,35.174,27.211,-7.9631
Rb2Mg2S3,24.3051,18.4754,-5.8297
Pr2Nd5Er2,19.1734,22.0383,2.8649
MnNb2I,101.9992,82.5786,-19.4206
Ba6IrPd,7.4192,8.551,1.1318
GeBiRhO6,5.9291,7.1781,1.249
PtPbBr3,42.2779,34.9251,-7.3528
Sm2Mg2Sc3,10.1105,11.7537,1.6432
Sn2Te2F,37.2441,33.7359,-3.5082
ZrMnOs2,61.166,59.6776,-1.4884
Sn2Pd5Pt,29.9284,25.3607,-4.5677
LiPmNd2Te5,25.506,26.1993,0.6932
Ho3(MgTc)2,39.3936,35.8547,-3.5389
Ba2LiPaTe5,25.8479,25.5189,-0.329
NaCaScSi2O7,23.98,20.9587,-3.0214
Ba2LiUTe5,26.0075,25.6114,-0.3961
LiAc2BiTe5,38.373,38.3813,0.0083
Ba2LiHfTe5,34.5261,28.7407,-5.7854
NaVPb2,61.3115,54.2541,-7.0574
Sr2CaTaIn,27.1285,21.4979,-5.6306
HfTaCo4,47.9621,36.5465,-11.4156
Cd2SiIr,24.5372,25.299,0.7618
K3Na5Tl2,24.6429,22.2266,-2.4163
CaTa3In,28.8472,31.0742,2.227
Ca2TaIn,17.1494,19.091,1.9416
LiNd2UTe5,30.1322,30.7822,0.65
Zr2Ge2Pb,53.211,48.2212,-4.9898
Zr(GeOs)2,40.1448,39.8131,-0.3317
Zr3GeOs,70.0206,61.4887,-8.5319
Zr2Si4Ir3Os,42.0161,37.719,-4.2972
Rb3SrSn,8.1854,7.953,-0.2324
Ac3ZnIn,40.4581,42.4341,1.976
Ta2Al2W,23.9113,27.9527,4.0414
Pt3PbBr,73.2728,55.8086,-17.4641
RbSrSn3,16.2424,16.8217,0.5793
Zr2Ti5Os2Pd,24.949,23.7768,-1.1721
Y6Hg3OsRu2,31.0725,27.1673,-3.9051
Li(TmPt)2,47.1148,39.2134,-7.9014
ZrCdGa2Os,35.7575,33.9716,-1.786
Na2HgPbF6,9.5028,9.7429,0.2401
MnGeP2S,35.5969,32.0793,-3.5175
Tm2PdPt,34.798,31.8471,-2.9509
La3TlZn,38.4844,31.5152,-6.9692
BaGa2Os,17.4407,17.5773,0.1366
LiScMo,12.7394,14.4494,1.71
BaGaP,15.6669,12.7528,-2.9142
NdSm2(InPd)3,20.0426,22.0448,2.0022
SiIrOs3,38.112,39.3551,1.2431
Ba3GaP2,9.92,7.4569,-2.4631
BaCeGa3,7.682,8.3975,0.7155
YFeHg3,15.6008,11.6327,-3.9681
Ba3(GaRu)4,14.2162,12.0749,-2.1413
Nd4BiPd15,20.3209,21.7517,1.4308
ZrTaVOs,87.9602,75.5058,-12.4544
SmInPd2,14.1281,17.2042,3.0761
YFe2Hg,17.8766,14.812,-3.0647
BTePS2,34.3892,30.3096,-4.0796
SrFePb2,41.3595,39.8351,-1.5244
SrFePt,49.8542,38.8166,-11.0377
Cu2AsIr,17.0418,19.6912,2.6494
Sc4CuTe,17.0022,14.055,-2.9473
Co3GeRh,16.3457,14.846,-1.4997
ZrTiOs4,46.2214,45.5752,-0.6462
Tm3Sn3Pd2Pt,32.6549,29.158,-3.4968
Ba(GaRu)2,14.2877,12.7443,-1.5434
LiScMo,0.4876,14.4494,13.9619
BaVGa3,32.4269,25.7701,-6.6568
LaTbErTh,43.4391,42.7641,-0.675
K2TlRu,23.4168,23.5593,0.1425
Y2FeHg,26.7397,22.5655,-4.1742
YPu2ThP4,35.3559,34.2806,-1.0753
HfGeRh,66.6466,49.4194,-17.2272
SmPu3Pd4,38.5192,39.9804,1.4612
LiLu(FeP)2,29.5746,26.5822,-2.9924
La2ZrRu,54.7263,45.3444,-9.382
CdPd3I,19.7756,20.6267,0.8511
GeOsRh3,40.8391,32.9043,-7.9348
LaZrRu3,40.3921,35.786,-4.6061
Ba2SrGa2,6.9639,5.6075,-1.3564
DyYZnHg,20.9758,20.127,-0.8488
BaVGa2Sb,40.3526,31.3414,-9.0112
InAgPb,31.5472,31.6455,0.0983
P2IrOs,29.5317,30.7116,1.18
BaGaPb,22.9634,21.9331,-1.0303
Ca2Ac2Mg3,20.9639,22.6202,1.6563
PIr2Os,39.9614,39.1492,-0.8122
PIr2Os,39.8307,39.1492,-0.6815
PrAsF,3.2395,5.4713,2.2318
As2AuI,23.3161,24.2354,0.9193
CsSi2,10.4591,10.021,-0.4381
Ca2BeSb,20.3099,15.443,-4.8669
CeNdGd2,27.2123,30.1345,2.9221
Ni2Pd2Pb,20.4013,22.461,2.0597
MnGe2Rh,41.5835,34.637,-6.9464
ZrBPS2,44.66,38.2451,-6.415
GaAgPb,27.7518,21.8542,-5.8975
NaCaFe3,26.5349,20.9617,-5.5732
P2IrOs,29.7612,30.7116,0.9505
LiYHf,35.4442,25.8214,-9.6229
Ba2Ga4Sn3Pb,16.3354,15.5641,-0.7713
Pu(TaIr4)3,43.4297,45.8669,2.4372
Li2CeIn2,14.8478,14.4519,-0.3959
RbBa2ZrGa,23.9235,19.2283,-4.6953
Ba2GaSi,7.9479,5.8885,-2.0594
HfTc3Ni,87.7965,68.521,-19.2754
Zr2TiOs2,48.7196,45.3592,-3.3604
BaGaC3,41.7741,27.6151,-14.1591
Re2NiAs,35.5441,28.6349,-6.9092
RbGe2Mo,11.4006,11.3499,-0.0507
SrNiC2,39.272,28.2313,-11.0406
LiSi3Pb,24.5044,20.6594,-3.845
GaRuAu3,35.0999,35.209,0.109
YHfS2,59.3035,43.5222,-15.7813
Os2AuBr,37.109,39.0592,1.9502
SrCeCd4,20.6165,20.1639,-0.4527
CuPRu2,15.4082,15.6086,0.2005
ZrOs2Pt,59.0695,54.8385,-4.2309
Ba2YCdHg6,12.7126,11.5017,-1.2109
CsCa3O,27.1483,23.507,-3.6413
CeFePb2,29.1811,29.8802,0.6992
TlRhBr4,25.0634,23.1767,-1.8866
SbSeO3,31.644,26.9532,-4.6908
Nd6CoNi2I3,25.1779,24.5113,-0.6666
AlGa7,7.7522,8.5837,0.8315
Zn2Fe2Bi,17.5708,16.2835,-1.2873
Sc2TaRe2,77.1312,64.8187,-12.3125
EuIrF6,14.2551,15.4761,1.221
ZnCr2,3.9271,3.7405,-0.1866
AlCuMo,23.9005,16.718,-7.1825
ZrRuF2,25.2287,23.6786,-1.5502
Zr2OsPtSe,75.6491,62.5769,-13.0722
CuTcRh2,49.7211,39.8692,-9.8519
Cr(NiSb)2,28.7682,23.6052,-5.163
EuUF6,15.3701,18.7061,3.336
SrFeRu2,29.65,24.0411,-5.6089
CuNi2Ir,15.7749,19.5081,3.7332
CaEr2In,20.7085,22.8021,2.0936
Nb2CdB,79.7038,63.4486,-16.2552
TlRhBr2,30.5898,27.5843,-3.0056
CsScCu2,23.9284,20.6824,-3.246
TlRh2Br,40.6291,33.8009,-6.8282
NaNb2TlCd,77.1946,63.8356,-13.359
GaCuOs2,20.6046,25.5086,4.904
Nb2SnB,76.0992,63.7813,-12.3179
In2SnSe,27.023,25.6844,-1.3386
Tm3ZnPt,32.357,30.2113,-2.1457
NaCrI2Cl,20.4473,18.67,-1.7772
Ca2Co2Os,12.8143,13.3794,0.5651
PPdRuN,27.1101,26.2923,-0.8178
Li(AcAl)2,25.5736,27.8539,2.2803
Li(CdSn)2,16.0026,17.1669,1.1643
BaAc3,48.4534,50.5032,2.0498
NbSn2Pt,62.3617,52.4154,-9.9463
HfScHg4,24.4881,18.2504,-6.2377
K2SbIr,28.7308,27.7656,-0.9652
Zr3ZnIn,58.1323,51.1038,-7.0285
Zr3NbZn,81.3413,68.2163,-13.125
BaSr7,11.7808,12.4896,0.7088
BeSbAu3,37.5051,37.039,-0.4661
TlVPS2,61.4858,51.1722,-10.3137
BaSr7,11.7828,12.4896,0.7068
Sr3Au,13.9488,17.7153,3.7665
Sr2TaNb,60.81,48.5736,-12.2364
SrVSn3,42.2658,36.0437,-6.2222
CeRuN2,34.2679,33.2852,-0.9827
Ho2Ge4Rh3,26.0417,23.276,-2.7657
PuZn3Ir,30.6382,29.4012,-1.2371
IrRu2Br,31.7291,27.4345,-4.2946
BPt4,65.3799,46.9239,-18.456
NaZrOs2,52.287,49.7232,-2.5638
SrTaFe,32.7327,31.1634,-1.5694
InSi2Ru,20.1449,16.4338,-3.7111
BaSr3I8,16.9866,18.0022,1.0156
Y(Er2Hg)2,23.9795,24.3292,0.3496
InSi2Ru,19.8067,16.4338,-3.3729
La2PrAs,26.6806,21.5714,-5.1092
PrYHg2,10.8689,9.9548,-0.9141
Dy2Al2GeRh5,28.045,22.346,-5.699
YZnHgPd2,19.4192,17.8336,-1.5856
Ce2IrPb,35.9422,39.2421,3.2999
Na2Tl3Sn2,34.6347,33.8943,-0.7405
Nd7GaI12,21.586,22.213,0.627
Tl3AgAu,46.5277,45.459,-1.0687
LaCuNi2,12.4801,12.3683,-0.1118
Nb(SnBr)2,41.688,36.8325,-4.8555
InGa3Tc,27.6584,25.3004,-2.3581
ScReBi2,55.1337,49.2866,-5.8472
ZrCrSb3,48.9968,40.8968,-8.1
Sr6IrAu,23.3486,21.9096,-1.4391
Re2HgBr,24.4462,26.0107,1.5645
Nb3BBr,87.9605,70.4146,-17.5459
TlRh2Br,36.2824,33.8009,-2.4816
Tl5(Hg4I)3,12.9316,14.1182,1.1865
ZrZnSnOs,42.0455,40.6145,-1.4309
Ba(TlPd)2,23.6498,26.0099,2.36
CsLa3O,47.6997,38.9677,-8.732
Pa2RuPt,60.053,57.8187,-2.2343
Sr3ThPt8,67.6243,52.0125,-15.6118
Zr2TaReOs,64.2274,59.7106,-4.5168
CsRbGe2,11.046,10.9829,-0.0631
Nb2Fe3B2,40.2675,34.2009,-6.0667
SrAc2IrPt,52.2884,45.4282,-6.8603
ThPaGa5Os2,28.5877,30.9319,2.3442
Y6HgOs2,21.127,20.3005,-0.8265
LuZrNiOs,44.5858,44.1273,-0.4585
Pu3ScTl3S8,56.4883,48.7341,-7.7542
Zr2TlAg,69.7014,61.1923,-8.5092
CsZrO3,1.5723,5.4682,3.8959
ZrTl2Ag,57.984,53.3964,-4.5877
V3OsI,92.3238,73.9091,-18.4147
ZrTlAg2,53.1029,46.4109,-6.692
Ca2PtF,25.7323,20.8394,-4.8929
BeCr2Bi,13.0064,14.4494,1.443
BeCr2Cd,5.8504,6.6185,0.7681
Nd4NiCI2,25.8035,25.0197,-0.7838
MnCoP2S,43.0469,34.225,-8.8219
SrYHg,21.1686,18.8324,-2.3362
Au2CI,42.0619,38.2216,-3.8403
Sm2Mg2Al,11.4814,13.9858,2.5044
Sc2Mo,20.8569,21.0945,0.2376
Ba2Mg2Pt,18.536,12.2942,-6.2418
BeCu,0.0,1.1195,1.1195
Er4Cu2Tc,31.8413,32.1805,0.3392
Rb(GeTe)2,22.019,19.7985,-2.2205
TlAgAu2,44.2536,43.3564,-0.8972
Cs2K3NpO6,11.3762,12.2605,0.8842
Rb3GeTe,12.4823,10.3646,-2.1178
Zn(GeTe)2,22.375,21.3457,-1.0292
LaPrF,17.1535,13.9679,-3.1856
ZnGeTe,16.9235,17.9149,0.9914
CrSb2Ir,37.0674,33.3724,-3.695
LiTm2Si4Ir3,26.3984,25.4014,-0.9971
CsAc(AsPt2)2,57.7554,45.6676,-12.0879
CrSbRh2,37.7509,29.2708,-8.4801
Mg3(TlSn)2,21.5069,22.7331,1.2262
LuPN2,25.6781,23.2691,-2.4091
In2Pb2Se,35.4205,34.3647,-1.0558
Nb6GaB,109.4733,87.1678,-22.3054
HfCuTe2,53.2982,43.6468,-9.6514
Mn3NbB,90.243,71.609,-18.6341
SrSmGd,22.7222,25.0477,2.3255
YGaHg,15.3622,15.1852,-0.177
HfSnP2S,46.292,38.0335,-8.2585
BaZnCd3,11.3635,12.7383,1.3748
TcNiBi3,53.4755,50.6383,-2.8371
Cs2YHgCl6,21.2461,21.766,0.5199
Nd6GaOs2I3,25.1059,26.9406,1.8347
AcEuYHg,35.8612,34.4749,-1.3863
NbB3Rh,43.2857,35.9834,-7.3022
PmYHgRu,28.999,26.4094,-2.5896
CaPm2YHg4,12.507,12.5548,0.0478
InFeTe2,29.3058,25.6207,-3.6851
BaSr11,12.3421,13.1634,0.8213
NaCaHoTl,27.086,27.6315,0.5455
NaAlTlCd,24.4621,24.466,0.0039
RuSe2SN,54.6578,43.9566,-10.7012
LiDyYEr,17.9382,20.5999,2.6617
NaCoOs,18.9669,22.9378,3.971
Sr2Sm(Cd3Rh2)3,29.6092,24.2839,-5.3253
InGa2Cl,7.4691,9.0777,1.6087
ZnIn4Ru,17.8439,18.8827,1.0388
ZnSbTe,31.6732,29.0616,-2.6117
POs4Se,37.8196,37.7299,-0.0896
PrY2Hg,23.9554,20.3409,-3.6146
Pr3Sm5Sn2,10.4288,13.2264,2.7976
Y(Nb2Te)2,96.2858,78.0411,-18.2447
Sm5CuSn3,25.9099,26.025,0.115
Sr2PdPtPb2,34.942,32.5843,-2.3576
GdThBeZn,31.5704,29.9027,-1.6677
Ba3Al3Ge2Au,20.972,17.2377,-3.7343
In3Bi3I,32.3011,33.6157,1.3146
Zn2SbTe,25.7392,23.8242,-1.9149
ZnSb2Te,35.1296,31.091,-4.0386
CeCu7Se6,25.361,21.7556,-3.6054
Co2GePb,15.9991,16.8203,0.8212
Sc2HgAs,17.3164,14.7035,-2.6129
Tb8Cu4Ir3Ru,24.6863,25.3579,0.6716
GdZrBeZn,39.6082,33.1849,-6.4233
SbBr,40.9243,37.0688,-3.8555
ZnInPb2,33.2382,35.21,1.9718
NaCoW2,22.6838,26.1804,3.4965
Zn(WC)2,34.6215,30.0579,-4.5637
SmY2ScHg4,15.8503,14.6254,-1.2248
Cs2K2Te,20.6774,20.0477,-0.6296
YErNiHg,48.4858,45.1268,-3.359
K3BiI6,19.0865,19.544,0.4575
Sc4InTc,41.1058,35.9969,-5.1089
YRuBr,31.5933,28.143,-3.4503
HfCu2Au,51.0029,41.7704,-9.2325
Ru3WBr,44.9396,33.4145,-11.5251
SrFeTe2,35.4234,32.0251,-3.3982
LiPrYHg,13.2039,11.5229,-1.6809
HoTm4Cu5,18.1758,20.4056,2.2298
ThUGa5Os2,28.9764,30.7592,1.7828
HfZr3In,83.9594,67.229,-16.7304
PuHfZr3,92.2526,77.0509,-15.2017
NaNdYHg,24.8714,22.6041,-2.2673
PmGdBeNi,17.0461,18.0024,0.9562
Nd8GeIr3Cl4,20.9715,22.078,1.1065
AcSmCu4,19.2093,21.2377,2.0285
YInHgAu2,33.1499,31.832,-1.3179
POsRuS,22.6465,26.6167,3.9702
Pr2In2Ni15,9.4706,9.8833,0.4127
In2SbRh,33.3463,30.2644,-3.0818
LiNd2Ge4Ir3,21.0023,22.9643,1.962
Nb3BPd,90.6952,72.9906,-17.7046
NbPd3,41.4724,37.5771,-3.8952
CsGdO2,2.864,6.8016,3.9376
Th2GaCu3,22.2659,25.0191,2.7532
SrTl2Fe,40.4462,38.6867,-1.7595
Na2TlCu,24.8157,24.1667,-0.649
PmGa5Pt2Rh,32.2862,25.9414,-6.3448
Th6CuTc2Te3,58.9525,56.5541,-2.3984
LiHg,4.4753,4.0916,-0.3837
CsRb3Re,15.722,15.2481,-0.4739
Y3HgCl,52.4104,46.6641,-5.7463
ZrSbPb2,58.2371,54.7391,-3.498
LiHg,3.0076,4.0916,1.084
Sr2CeCu2Se5,29.7247,25.9974,-3.7273
CsZr3O,66.4875,55.1558,-11.3317
SrNdPd,18.2451,20.3266,2.0815
Nd4TmSc,22.4204,24.9367,2.5163
YNiHg3,33.1011,29.3603,-3.7408
Tb4NdSc,22.8851,25.1471,2.2621
K(Cu2As)6,8.0972,8.4572,0.36
Ta3MoBr,28.9788,31.2627,2.2839
In2PdCl,11.7135,14.0254,2.312
CaRh3Se,58.338,42.7614,-15.5766
Er4NpSb5,40.2853,38.113,-2.1723
LiTm4ScS8,42.4154,34.9616,-7.4538
W3Se,41.35,44.5297,3.1796
CaRh2Se,58.6141,44.8074,-13.8067
YRh2S,34.7672,26.3345,-8.4327
HfScPd4,38.617,31.7651,-6.8519
CdSi2Ag,20.4458,16.6818,-3.764
Zr2CdSi,57.2981,49.055,-8.2432
Hf2NbAs,101.3426,76.6643,-24.6784
NaW3Au,40.32,41.4005,1.0805
CdSi2Ag,20.3221,16.6818,-3.6402
CrPd3I,17.8165,18.0779,0.2614
TlCrI2N,28.7553,26.9551,-1.8002
Co2Ni3Pt,38.52,29.6075,-8.9125
CsRbTe3,30.6114,28.4637,-2.1477
GeP2IrS,29.811,27.2324,-2.5786
MoAsBr2,12.6309,13.8396,1.2086
GaTeIr2,29.056,32.8035,3.7475
CsRbTe2,27.3644,26.3896,-0.9748
CdSiAg2,24.2995,20.8863,-3.4131
LaPr2Sc,11.8305,9.8937,-1.9369
Li2CoPt,24.4003,18.9549,-5.4454
LiTbYPd,22.9807,22.2072,-0.7735
MoC3Br,43.8847,31.615,-12.2696
ScSnPd4,20.7746,20.1809,-0.5937
Cd2SiAg,21.3573,18.6484,-2.709
SrFeW2,36.3996,35.4962,-0.9034
CrSnIN2,26.4625,21.8543,-4.6082
CuSb3Te,37.1292,32.3839,-4.7453
Pu2TlI,54.2631,55.0887,0.8256
GaSbIN2,17.9391,15.9064,-2.0326
TlSb2Te,42.8063,39.3536,-3.4527
HfZrPt3,93.3549,68.1113,-25.2437
CdSi2Ag,17.4311,16.6818,-0.7493
HfZrPa3,79.9675,72.3292,-7.6383
Na3(SrAu)2,27.6069,26.3962,-1.2107
NiSeI3,25.1181,23.4042,-1.7139
Y2NiHgO,59.8907,51.257,-8.6338
MnInPd,33.7732,31.1766,-2.5966
LaZrBi3,45.3784,43.9799,-1.3985
CsGe2C,27.7701,23.3177,-4.4524
RbNiI6,17.9625,18.6447,0.6822
AcYNiHg,57.411,53.6121,-3.7989
Tl2IBr,33.2933,33.7126,0.4193
Rb3MoBr8,8.6005,9.1231,0.5226
TiMoBr3,11.6649,12.2085,0.5436
ScAsW2,35.8863,33.85,-2.0363
LaMoBr3,20.1567,17.7724,-2.3843
RbNiSb3,34.3408,26.7432,-7.5975
ScTiTe4,25.0342,24.2812,-0.753
YErHgTe,29.6466,28.2896,-1.357
Na3(TlPb)2,39.9812,38.5075,-1.4737
Cs3(NaHg)2,14.2955,13.7495,-0.546
Na3(BiSb)2,38.7952,35.2598,-3.5353
Ba3(MnSn)4,43.5356,36.9598,-6.5757
PrGaNiN,5.9697,6.0164,0.0467
ScBi2S,47.304,45.9776,-1.3264
Na2In2Sn3,21.5242,20.9342,-0.59
TmW2,5.8427,20.3771,14.5344
YHgIrO2,27.1883,25.4204,-1.7679
CrOs2Rh,26.8553,28.2809,1.4256
GdInSb,23.0474,23.6593,0.6119
Cs2KSe,26.5532,24.2118,-2.3414
LiPBr2,13.1723,12.0562,-1.1161
Re2TeOs,41.5695,46.5618,4.9923
SrYInHg,20.4624,19.3463,-1.1161
Cs3TaTe4,21.1495,23.9741,2.8246
ZrFe2Pb,36.4807,32.2833,-4.1975
MnPtI2N,49.0462,40.3889,-8.6573
YbGa4Ru,10.0948,12.5267,2.432
Mo2IrPbF,34.5012,29.9845,-4.5167
Re3TeOs,42.8854,44.1878,1.3024
LiPBr,13.1533,12.5948,-0.5585
CsTl2Sn,36.65,37.9781,1.3281
LaY2HgRu,33.6388,27.2587,-6.3801
P2WSF,70.4128,60.0686,-10.3442
Mg2MnH8Pt,17.9339,14.4897,-3.4441
SrTb(CuGe)4,10.0806,11.4941,1.4135
Rb2(CuSe)3,16.8948,14.2158,-2.6789
Rb(InP)2,15.085,13.5142,-1.5708
RbTe,10.2227,9.1536,-1.0691
Cs2Ge2O3,10.0686,9.9138,-0.1548
NdMnSb2,46.7616,40.9566,-5.8049
Li2PBr,18.2655,15.7468,-2.5187
Sr2IrI,23.5727,22.314,-1.2587
YHgPd,0.0,3.052,3.052
CaCrSn,8.5788,8.6612,0.0824
GdTiRh2,32.398,27.8737,-4.5243
Er4Cu3Sb8,32.5045,29.6828,-2.8217
LaYTc2Hg,79.1506,64.0896,-15.061
MnSeI2N,40.6081,33.8134,-6.7947
Cs2TiCuRh,23.1684,20.4173,-2.7511
Na(TiRh)2,24.0204,19.4303,-4.5901
RbTe,12.8262,9.1536,-3.6726
Ti6RhPb2,20.321,20.8829,0.5619
RhWAu,45.1254,43.1367,-1.9887
K(ThZn)2,32.0091,33.4972,1.4881
LaScCr,32.9493,25.299,-7.6503
MnTlTe2,54.0851,49.0465,-5.0386
La2ScCr,37.6772,28.6784,-8.9988
YHgTe2,32.9551,29.4845,-3.4706
In3Ag2Au7,37.7389,37.4122,-0.3267
SrSiIrO6,19.534,16.9962,-2.5378
MnTlTe2,53.7607,49.0465,-4.7143
Nd4Ga2I5,19.982,21.2673,1.2853
PrFe2Sn7,18.4318,18.4306,-0.0012
MnTlTe2,58.8672,49.0465,-9.8207
PrNbTe2,54.9376,47.552,-7.3856
YPa(CuGe)2,26.9419,25.5893,-1.3525
TiAlRh2,26.663,20.7504,-5.9126
Hf5TiRh4,91.2934,64.9483,-26.3452
TiRhBr3,17.9531,14.9881,-2.965
DyNp(CuGe)2,21.191,23.331,2.14
PaPS,42.5684,44.7953,2.2269
V2RuS,74.7121,59.2533,-15.4588
SmYHgTe,28.5221,27.1568,-1.3654
TiAl4CuRh2,15.6894,13.1242,-2.5652
Dy3CuRu2,20.6673,22.2307,1.5635
Sc6NiSb2,16.3025,14.3488,-1.9538
Hf2Nb2In3,90.016,70.109,-19.907
Sc6TlBi3,18.517,20.8673,2.3503
Sc3In5Te12,20.3489,18.6229,-1.726
LiV2In,66.2896,52.5676,-13.722
Cs2AlNi,12.2683,14.2972,2.0289
SmY2Hf,49.3479,40.5759,-8.772
LiTiRh3,30.9678,22.4972,-8.4706
FeTePt2,56.0654,44.857,-11.2084
TiTeRh2,29.4966,24.3769,-5.1197
SrFe2,14.4611,14.1045,-0.3566
TiP2Rh,14.8018,13.9802,-0.8215
TiPRh2,19.2678,16.0219,-3.2459
KSeBrN2,16.284,13.7693,-2.5147
Ca2TeIr,30.7713,26.6335,-4.1377
TiSiRh2,35.35,26.7685,-8.5815
YErHgPb,32.6646,31.9527,-0.7119
Rb2YHgCl6,13.1258,12.753,-0.3727
Nb2In2Ru3,52.8595,46.7747,-6.0849
Ti(SiRh2)2,40.6744,29.3328,-11.3416
TiRhBr2,19.4112,16.99,-2.4212
Sc3MnSe6,32.8811,27.0383,-5.8428
Sc2Be15Ir2,8.3981,7.664,-0.7341
CaMg2TcH6,12.3653,10.8163,-1.549
Nb3(PdRh)2,79.5069,64.1297,-15.3773
AcMg(H3Pt)2,21.0647,16.9932,-4.0716
BaHfCu3,34.2062,25.3505,-8.8557
Nb2CuB,83.0699,65.4531,-17.6168
Nb3(OsRu)2,77.2652,66.8848,-10.3804
Nb3(RuPt)2,90.5654,72.3002,-18.2652
Pr3In3Ni2,14.1906,13.0714,-1.1192
CaY2ZnHg4,14.4917,12.1653,-2.3264
Rb3La2ScS6,39.2991,29.5163,-9.7827
ZnHgPt,32.183,24.4978,-7.6852
Pu2Nb2Ru3,68.0072,60.8379,-7.1693
NaGd(CuAs)2,13.9185,15.5245,1.606
CuSnPb,56.9717,51.5319,-5.4398
CuPRh2,31.627,23.3653,-8.2617
PrGe3Au,14.0189,15.1623,1.1434
Pm4Er3Ir4,32.2841,34.3169,2.0328
YPuOsRh,44.9059,43.3127,-1.5932
Ga2AgPb,22.2916,22.5125,0.2209
Li4PrDy,4.1877,5.351,1.1633
Nb3(ReW)2,82.9604,73.7347,-9.2257
NbZn2B,40.5026,33.8388,-6.6638
Nb(BBr)2,30.658,25.1783,-5.4798
Cu(GeRu)2,5.8974,9.4736,3.5761
Al2V7Ga3,77.7983,60.8852,-16.9132
Na2Al2Ag,14.9013,12.9302,-1.9711
LiNb2B,64.6488,55.2755,-9.3733
LaY3Hg2,29.0564,22.6625,-6.3939
TaFeTe,27.0993,28.3839,1.2846
Na(Ag2Pb)2,36.4737,32.3727,-4.101
Tl2IN,30.0567,30.4321,0.3755
Hf2AsPd,69.8259,51.6041,-18.2218
Y3Hg2Pd,28.3157,23.787,-4.5287
In2MoAs,12.2654,15.5299,3.2645
AlTcGe,47.9102,39.5651,-8.345
YHgBiP2,26.788,22.6914,-4.0966
GdAsPd,0.0,5.7503,5.7503
NbInB2,35.7007,32.399,-3.3017
Al3V7W2,82.4872,65.8865,-16.6007
ReTcPt,74.2302,62.7666,-11.4636
Ba2SrPb,13.93,16.9171,2.9872
Ho3Ga3CuPd2,4.9334,7.6595,2.7261
PaCdSn2,31.7683,33.7822,2.0139
NiBiC,41.2998,36.0948,-5.205
SrCdSn3,21.8358,20.4117,-1.4241
Y2TmHf,50.7529,41.8795,-8.8733
AlZn2Mo,13.3274,12.0579,-1.2696
Ni3Pt5Rh2,50.9049,36.9327,-13.9723
Na(CuBi)2,26.1445,27.1769,1.0324
NbVB,62.7412,53.7789,-8.9622
U2FeRu,56.0649,50.5463,-5.5186
Y3Hg3Pd2,23.7037,19.6308,-4.0729
TbHfSc4,31.7836,26.8811,-4.9025
YThSnHg,35.432,33.5054,-1.9265
Zr2ScSe2,51.5597,43.2222,-8.3376
Na2SbPb,36.4919,33.108,-3.3839
Na(InCu)2,15.6128,15.7668,0.154
DyTh(CuGe)4,15.251,16.9815,1.7305
CaYHg2,13.276,11.9905,-1.2855
Nb2HgB,64.5198,53.523,-10.9967
Ta2FeTe,29.2332,31.5914,2.3582
ScGaI,6.7691,11.0595,4.2904
AlBiBr2,20.3266,21.2117,0.8851
La2Y2ErHg5,19.6866,16.2923,-3.3943
BaScCuGe2,19.8302,16.5432,-3.287
BaBeCu2Ge,8.5422,7.3121,-1.2301
ThScAu4,42.6944,45.1751,2.4807
PrZrIn,37.6557,34.6252,-3.0305
Be2PPt4,52.2468,37.838,-14.4088
SmScAg4,25.6455,22.1369,-3.5086
CdSiTc2,49.2183,41.3779,-7.8404
Tm(MgPb)2,25.2393,27.4581,2.2188
Cs2RuO6,15.3707,15.3856,0.0149
VPbC2,69.5579,54.4319,-15.1261
CsAc2(AuO3)2,25.2341,25.524,0.2899
Ti2HgOs2,10.7525,16.5953,5.8428
ScGaBr,3.8403,7.1313,3.2911
Sr2NdCu4,11.0697,14.012,2.9423
BaSrPb3,34.3745,35.3401,0.9656
AlRhW2,23.7453,27.1254,3.3801
CsRbNbAs2,53.94,44.3943,-9.5457
NaLi3F4,5.0451,4.5944,-0.4507
Ca2MgRu2,4.8051,7.6926,2.8875
Ba2SbPdN,19.6089,17.2573,-2.3516
LiFePO4,13.2051,12.7954,-0.4097
Ac2Nd2Ir3,36.6327,40.9217,4.289
CsPaTe,40.7346,40.8989,0.1642
PmZr2Ru,65.9793,58.1662,-7.8131
BaInSb,21.301,20.5,-0.8009
Zr2AlNi,44.1451,42.7916,-1.3535
Cs3TlO3,5.2974,7.4575,2.1601
Pm3(NdHg)2,17.3811,19.668,2.287
MnCu4Pb,30.0002,28.1723,-1.828
Ca2SnPb,17.4556,20.6824,3.2268
Sm7Sn3C2,29.3231,26.9237,-2.3994
YErHg5,10.997,10.354,-0.643
YTl2B,71.6307,65.8567,-5.7741
CdSi2Tc,36.0822,29.6101,-6.4722
KBi3Rh,32.0411,32.703,0.6619
YVRu3,42.1582,34.6599,-7.4983
Tb2Nd2Th3,43.026,46.4076,3.3816
CdSiTc2,55.2654,41.3779,-13.8875
Nd2Sm2Pt3,45.2722,36.6651,-8.6071
Ac2Nd2Sm3,36.3443,38.1705,1.8262
CdSiTc,42.7713,35.8978,-6.8734
TcGe3Ru,28.2961,26.0556,-2.2405
LaPr4Sc,6.3041,5.8632,-0.4409
NiSnPt2,51.7845,38.2355,-13.549
CuRuS2N,47.6185,37.9787,-9.6398
ScGaSn,21.7517,18.3989,-3.3528
Co(NiRu)2,18.4503,18.6842,0.2339
Ac3(TbNd)2,42.3492,44.2326,1.8834
NaLiGeO3,9.8294,10.6976,0.8683
PrMg2TaH6,6.0152,6.4544,0.4391
ScSbMo2,29.2922,27.9286,-1.3636
Ta2CrAs,48.6309,41.2177,-7.4132
K2(TcSe2)3,35.9943,28.7145,-7.2798
Pa2Si3TcIr4,43.7823,42.2011,-1.5812
Ac2Tb3Nd2,37.0367,38.8668,1.8301
BaMg2Si,4.9322,3.5868,-1.3454
ScSbMo2,29.076,27.9286,-1.1474
DyTh2Si3Ir4,36.8191,37.3355,0.5164
ScTaAs,89.0765,74.4929,-14.5836
Sc2NiBr,3.0079,5.303,2.2951
Nd8Ga3PI4,21.0283,21.2675,0.2392
Na3CrH6,4.7503,5.6767,0.9265
YHgCl2,39.7384,39.8804,0.142
Nd3Ge13Ir4,11.8975,13.7536,1.8561
Cu5NiAs,12.675,11.6592,-1.0159
ScSb2Mo,36.2499,28.3608,-7.8891
Ba2CuSbN,10.4221,9.855,-0.5671
ScSb2Mo,36.1371,28.3608,-7.7763
NaLiP2O,19.7572,17.8937,-1.8635
SrMn3Rh,72.6324,57.6516,-14.9808