Formula,E_hull_DFT (eV/atom),E_hull_ML (eV/atom),Delta (ML - DFT)
NaGe(AuO3)2,7.9729,9.3318,1.3589
NaYTi2O6,11.8258,10.0328,-1.7931
HfAsW,36.1292,31.7392,-4.39
MnRu7,26.659,26.4489,-0.2102
NaTmTi2O6,6.1368,5.5989,-0.5379
MoP2Pb,21.135,19.8913,-1.2437
NaPr2PbO6,6.3056,4.8679,-1.4377
ZrP2Pb,33.2082,32.6105,-0.5977
NaNbTl2O6,20.0042,18.8911,-1.1131
HfAsW,55.7016,31.7392,-23.9624
BaIn9Ni2,17.8941,17.2346,-0.6595
NaNi(TeO3)2,14.9907,12.5993,-2.3914
NaPu(NiO3)2,13.2527,13.5222,0.2695
LiCrIr2,25.138,26.3145,1.1765
Rb5Sr3I12,6.7031,7.4983,0.7952
NdSmY2,13.8228,17.9557,4.1329
Cd2Cu2Au,17.4255,19.4786,2.0531
Cu(ReNi)2,43.3357,29.4326,-13.9031
Cd2CuAu,23.0541,24.2739,1.2197
NdHg(H2Pd3)2,10.6923,11.5658,0.8735
In2RhCl,22.9804,20.3164,-2.664
Tb3Si2Ni9Ge,13.7329,12.1216,-1.6113
CdCoRu2,14.9502,17.7258,2.7756
Ta2HgPb,32.0263,34.838,2.8117
SrSn4Pt,26.268,24.547,-1.721
Sr6Cd2Hg,13.631,12.6935,-0.9375
CsReGe3,32.1473,27.7111,-4.4361
ReGeO2,30.5328,29.5909,-0.9419
Cd(CoRu)2,6.7354,11.7923,5.0568
NaU(PbO3)2,11.5757,14.847,3.2714
Sr(AuI3)2,24.4424,25.2641,0.8217
TiTeAuI2,33.2498,27.9834,-5.2664
MoP2Ru,17.6948,16.3647,-1.3301
Fe2RuBr,25.3651,19.2571,-6.108
Tc5Sb,84.9146,71.6007,-13.3139
CdRuBr2,20.0579,17.8218,-2.2362
TiRu2Br,17.6316,17.8044,0.1728
Nd2YGa5O12,3.4437,3.2517,-0.192
TiSnI,23.1757,18.6613,-4.5145
Pm2Pr6YMg,1.2376,2.4958,1.2582
LaRhCl,34.2069,25.1229,-9.084
CuSbRu3,22.3094,21.7257,-0.5837
LiBeIr2,22.4853,25.0086,2.5232
NaAcTi2O6,9.5546,9.4686,-0.086
Tl2MoP,39.383,35.5455,-3.8375
CsTe2P,24.3696,24.307,-0.0626
NaTi(TeO3)2,10.8124,8.5571,-2.2553
Al2CdCu2,6.159,7.1914,1.0323
NaPm2TiO6,10.9172,11.6914,0.7742
Cs2ScGaO4,40.4155,36.6932,-3.7223
LiMgNi2,0.5665,4.4621,3.8956
AcNi2BiO6,7.2395,10.191,2.9515
InCo3Cl,10.0267,10.8739,0.8472
RbSc3Co,5.4957,6.196,0.7002
Y3Er(ThBi2)4,47.5387,49.3455,1.8068
La2RhCl,38.0908,28.3922,-9.6986
Ti3TeBr,14.5254,14.7761,0.2507
ZrCuRh2,50.5607,40.4836,-10.077
TaHgPb,30.8877,32.9197,2.0321
Er2TlV,60.1027,54.463,-5.6397
InCoCl2,8.248,10.3807,2.1327
Mo2PRh,29.1567,25.2591,-3.8976
BaLaAl,30.625,22.4691,-8.1559
CuNi2TeO6,7.2545,7.9628,0.7083
CrIrOs2,35.1155,37.8865,2.771
NpNi2GeO6,10.8334,10.2703,-0.5631
Ba2CaOs,12.4545,14.8005,2.3459
CrIrOs2,35.5556,37.8865,2.3309
SrSc2CrRh,24.6715,19.1381,-5.5334
Sm5(YHo)2,23.2808,26.4828,3.202
GaCuCl,5.259,4.6879,-0.5711
NaFe2BrF,16.8903,13.7795,-3.1108
CoCuRu2,27.4029,24.4744,-2.9286
CrIr2Os,35.4066,38.1523,2.7457
BaTiTe2I,31.0238,27.6815,-3.3423
CdSb2Te,37.6992,33.9226,-3.7767
CdSbTe2Pb,40.8263,38.0716,-2.7547
Nd5(YHo)2,23.059,26.3237,3.2647
NpNi2PdO6,8.5932,11.0623,2.469
CdSb2Te,37.9896,33.9226,-4.067
CaBPtO5,15.2357,12.8179,-2.4178
Ni2HgIO6,11.2599,10.6537,-0.6062
Nd5(YHo)2,23.0767,26.3237,3.247
RbTl4Ag,39.5456,38.6271,-0.9185
PaNi2RhO6,12.8296,12.2168,-0.6128
SrNi2IO6,13.6901,12.4633,-1.2268
Lu2ZrSc,42.6878,40.6805,-2.0073
InCuRu2,16.2271,17.6862,1.4592
Tb2SiNi3,15.4053,15.2521,-0.1532
Ta2SbTe,40.2922,40.6422,0.35
Ba2YPtO5,14.2038,12.0569,-2.1469
ZrCuIrO6,8.8189,9.5002,0.6813
Th2PaPb,62.9815,65.6908,2.7093
Ni2SnTeO6,27.7665,22.5282,-5.2384
SmPu(NiO3)2,10.3749,12.4166,2.0417
YHo2Hg,26.5546,26.1277,-0.4268
TbSiNi,0.0,3.7833,3.7833
MnP2Ir,43.9373,38.5733,-5.364
ThPa2Pb,63.3653,66.0841,2.7188
NpNi(BiO3)2,10.9619,14.5977,3.6358
Zr2CuRh2,52.5309,43.4751,-9.0557
InCuGe,8.3041,10.8096,2.5054
Li7HgAu12,28.6748,29.1523,0.4775
AlNiAgSe,17.9142,16.6102,-1.304
TlCd2Co,22.3845,23.8884,1.504
TcNiIr2,46.4822,45.4222,-1.06
CdPPb,15.6556,18.8017,3.1461
Tl2NiSbO6,21.6437,21.4664,-0.1774
Ac2Ho(AlHg4)3,9.1654,9.8719,0.7065
Ce2TmBi3,39.9449,42.1692,2.2243
Ba2YPbO5,9.9443,9.8405,-0.1037
NiTe2PbO6,10.5301,10.7109,0.1808
Si2RhPb,33.2929,26.8831,-6.4098
Li2HfRu,34.618,27.4181,-7.1999
NiBi2TeO6,11.0552,12.9482,1.8931
Os2RhCl,35.2823,33.7009,-1.5814
Y2(HoTm)3,25.5976,27.8156,2.218
Tb2Y3ErRh6,34.0302,28.4311,-5.5991
BaCaIr,26.5503,22.0045,-4.5458
K(In2Pd)6,18.4304,18.9603,0.5299
SrVAg2,48.2453,38.2423,-10.0029
Ac2NiTeO6,10.7016,13.0625,2.361
Cs(ZnB)2,15.4422,12.2201,-3.2221
NpTl2OsO6,20.4248,22.6079,2.1831
Pu(PaSi)2,37.5378,38.384,0.8463
RhPbCl,35.3013,31.5175,-3.7838
ErPu3Ga4,34.5597,35.9828,1.4231
Er5ScCu4,23.9573,24.183,0.2257
TaCu2Sb,25.7922,24.4731,-1.3191
PaBi2PdO6,23.8895,24.2345,0.345
Sm2InSi3Pt4,46.2576,34.9218,-11.3358
Pu2PaSi2,37.6867,37.5619,-0.1248
Ac6TePt2Se3,61.1975,55.0761,-6.1214
Ta2CuSb3,36.3638,34.0891,-2.2747
Ba(CaAl)2,10.6259,9.2544,-1.3715
AcCuBiAu,42.9005,45.4305,2.53
TaBAs2Se,34.0163,32.2635,-1.7528
Ni2IrRu,22.6212,22.2551,-0.3662
Cs3La2HfSe6,49.1776,38.9129,-10.2647
Cd2GaSn2,17.8197,18.9328,1.1131
CsIn2Ag,21.3489,20.6511,-0.6978
Ce2Tm5Bi4,38.0727,39.4762,1.4036
LiTb2Gd,20.9318,23.4767,2.5448
CoC,0.0,0.0,0.0
CaTbGd2,22.6197,25.2142,2.5945
CaGd2Os,26.2529,29.6933,3.4404
Ta2CoCu,43.6149,35.9685,-7.6463
TiTeRh3,39.7296,30.8855,-8.8441
Cd2RuWO6,14.3202,13.3474,-0.9727
Sr2Ga5Pt,19.3705,17.2789,-2.0916
TbGdAg2,29.3352,27.6467,-1.6885
Mn2SbC,68.8135,54.1217,-14.6918
Li4Co3Ni3(WO8)2,22.3368,19.5154,-2.8214
Gd2MgOs,26.0367,28.6092,2.5725
Er3TmGa4,18.4786,20.7683,2.2897
ReNiIr2,52.5697,44.6317,-7.938
CeAlSi2Ir5,34.539,34.7266,0.1876
LiBeOs2,22.1001,24.6992,2.599
Ta2CoCu,43.9133,35.9685,-7.9447
Tc2PI,49.0704,41.114,-7.9563
PtRhCl,47.9805,36.4251,-11.5554
GaRe3As,29.779,31.8827,2.1036
AcNd2(SmEr)2,31.8335,33.3544,1.5209
RbU(PbO3)2,9.3359,10.5762,1.2403
Rb2TmSbO6,13.0831,12.932,-0.151
Th2SiBIr6,40.146,42.4644,2.3185
BaCaPb,18.8129,20.8375,2.0246
La3Y2ThBi6,47.1108,46.0434,-1.0674
Rb2SrReO6,13.1784,11.8823,-1.2962
AcLaI2,39.666,37.3908,-2.2752
Ce4NdTh,31.9122,33.7208,1.8086
Sr2Al3In4Ag,14.6518,14.7763,0.1244
Rb2ZrTcO6,18.0741,15.3842,-2.6899
LiBePb,18.9879,19.7853,0.7974
AsIrPt2,58.2102,47.3174,-10.8928
Ti2NbI,44.1057,38.552,-5.5537
RbSr2MoO6,4.2792,5.0732,0.794
RbSr2TeO6,24.4061,20.9457,-3.4604
Ta2PIr,36.2827,36.1602,-0.1226
Ac2IrPt3,65.8061,55.7365,-10.0696
La2SnRhO6,39.5092,33.1611,-6.3481
SmY2Ta,40.8792,37.2331,-3.6461
RbPr(TeO3)2,5.5677,3.411,-2.1567
TaP2Ir,22.0664,21.238,-0.8284
TaRh(PbO3)2,17.351,17.4047,0.0537
ScBeSb2,27.4481,22.6004,-4.8476
AsIr2Pt,46.7529,44.8601,-1.8927
RuPtC2,60.5488,38.9949,-21.5539
BeSbC,35.9114,30.0555,-5.8559
TbHf(UAs2)2,42.4809,39.0826,-3.3983
TiNbTeI2,47.5301,40.6932,-6.8369
Ir3Pb,46.3958,49.8141,3.4184
Bi2PtRhO6,24.6078,22.0902,-2.5176
BaCaTa2,20.7747,22.9911,2.2164
Pr2ErRhO6,3.2335,2.1835,-1.0499
PtRh(PbO3)2,24.3523,21.0701,-3.2822
Y2TlSb,30.1672,31.1621,0.9949
EuSnAu2,35.294,37.0897,1.7957
CaTbInAg,20.3086,20.5437,0.2351
Ac2SnRhO6,37.1873,32.3245,-4.8628
Ir2Pb,40.1974,47.8839,7.6865
Cd2SnSeO6,29.386,24.4213,-4.9646
Tl2BiSO6,21.2168,21.6872,0.4703
Tb8Al2Bi,24.6203,26.0828,1.4625
ZrMo2As,26.3453,27.6126,1.2673
ErCr2SiO6,6.8545,6.7784,-0.0761
ZrCuSeN2,31.7726,27.4764,-4.2962
Sr4Zn3Ga,10.4015,11.4495,1.048
Ta2CuAs,14.9447,19.5583,4.6136
CdSi2Te,22.9498,20.855,-2.0948
NdRu(PbO3)2,9.5087,11.7142,2.2055
TlCd2TcO6,12.381,13.4292,1.0482
OsRu(PbO3)2,12.7153,12.5595,-0.1558
KRb3Au,8.1738,8.2355,0.0617
Bi3Pb,54.1824,55.4484,1.266
CdSiTe2,29.7227,28.101,-1.6217
NiPd,12.1617,5.6649,-6.4968
ZrCdGaCu,34.6437,30.609,-4.0346
CdSi3Te,22.4711,17.4439,-5.0271
TaTe2AsSe,48.7171,44.9297,-3.7874
MnC2,66.9059,46.927,-19.9789
Ga2Ag2Bi,23.8397,22.7638,-1.0759
V2O5,28.9961,21.542,-7.4542
PmPrRh2,28.9128,23.8821,-5.0307
Y2NbC2,64.5845,50.2352,-14.3493
BaTl2SbO6,20.2536,20.3729,0.1193
Rb2InSO6,14.5671,14.1539,-0.4132
NdZrCuPt,54.3485,46.2779,-8.0706
Tb5(YHo)2,24.1565,27.4199,3.2634
TlCoCu,42.9776,36.3852,-6.5925
NaSrBiSe3,52.5433,44.7927,-7.7507
Dy2ThPaTc2,54.3574,52.0306,-2.3268
RbLiHoI5,14.6621,16.5319,1.8698
Sm6YTm2Sc,19.149,21.0742,1.9252
YCr2SiO6,12.9001,11.1984,-1.7017
TlBi2SbO6,26.2597,26.4694,0.2097
Nd2ScCoO6,21.5569,21.7621,0.2053
RbAcSeO5,7.2069,8.4513,1.2444
Pm2ThSi2,22.2994,23.257,0.9576
Hg(SbBr)2,32.1858,28.2482,-3.9375
LiBePt,30.6475,23.1882,-7.4593
CaSmSb2Pd5,23.8031,22.1295,-1.6736
Sc2MnCrO6,80.3232,69.983,-10.3402
BeSnPb3,39.4033,37.3255,-2.0778
Ca3BeIn,13.5491,11.3172,-2.232
RbFeCu2,19.7542,15.6126,-4.1416
Cs(SrGa)2,13.693,14.6715,0.9785
Tc2NiSb,56.9815,46.9307,-10.0509
PuPa2Ga7,26.6105,27.8121,1.2016
CaBeIn2,18.9478,16.4257,-2.5221
Cs2PmScO4,33.3218,32.3891,-0.9328
Rb(Zn2Si)2,9.7355,8.1338,-1.6017
P2Se,13.7405,12.1011,-1.6394
BaCaW2,21.8498,24.5922,2.7424
Cs2AcScO4,38.3497,36.3761,-1.9736
AlCoMo2,16.6621,15.3313,-1.3309
RbW,0.0,4.9385,4.9385
TmLuAl2,17.1664,20.0941,2.9276
PN,0.0,27.5433,27.5433
TaBeVSe2,63.414,48.8714,-14.5426
CaBr,4.2227,5.9641,1.7414
TePtAu,59.7363,51.4897,-8.2466
Te2PtAu,51.2369,45.2598,-5.9771
CrIn2SiO6,12.1144,11.4122,-0.7022
Tl(OsRu)2,33.9617,36.9159,2.9542
ScFe2SbO6,41.3322,35.2228,-6.1094
VGa2SiO6,21.4341,17.732,-3.7021
VSi(NiO3)2,15.3214,13.4207,-1.9007
TePtAu2,56.641,50.8743,-5.7667
Co2C,20.4067,19.5383,-0.8684
ScNi(BiO3)2,30.4757,29.8367,-0.639
ScBi(PbO3)2,34.545,33.8879,-0.6572
NiRuC2,39.4469,31.4841,-7.9628
AlCo2Mo,14.5168,12.8676,-1.6492
Tm2LuAl,24.3908,27.3459,2.9551
Tb3Y(TmP3)2,17.7147,19.0494,1.3346
Y2Ho2Er2Pd,27.823,28.6064,0.7835
Ac2ScNiO6,30.1458,30.1923,0.0465
ScNi2TeO6,25.9556,23.9549,-2.0008
Nd2ScNiO6,22.0985,22.2044,0.1059
Tb2ScNiO6,22.3789,22.4326,0.0537
La2ScNiO6,39.6373,36.4022,-3.2352
Ti2TcSb,29.5273,29.0554,-0.472
ScNi2WO6,26.3301,25.6254,-0.7047
ScNi2PbO6,32.2249,29.8963,-2.3287
HfGeRu,38.2118,44.6038,6.392
CaMnP4,28.9796,24.1977,-4.7819
CsLaI2,26.517,24.5168,-2.0002
ScTa(PbO3)2,36.9201,35.3435,-1.5766
BeCrRh2,20.2841,16.5377,-3.7464
BeCr2Rh,16.6276,13.8155,-2.8121
CaHfRu3,40.3646,33.104,-7.2606
Y3Ho(Pu3Th)2,53.0344,54.033,0.9986
AcAuNO5,7.7399,10.1589,2.419
Hf2GeRu3,57.0476,44.9847,-12.0629
YHo3Pu4,48.6097,49.7427,1.133
SrOsRu2,22.6085,25.6574,3.0489
ScMn2VO6,94.0664,80.688,-13.3784
MnAlAg2,41.3399,33.7509,-7.589
CaAuBr2,18.0103,19.1173,1.107
HgMo4Se,18.8062,19.4564,0.6502
ThPb3,55.7882,58.4518,2.6635
Si2OsRu2,17.8828,16.3458,-1.537
Ba2CePrO6,3.7814,3.9796,0.1981
BaCe2EuO6,7.0,6.7367,-0.2633
Na(InSb)2,27.6569,27.5247,-0.1322
IrPdRu,31.6415,29.9419,-1.6996
RbTiIr3,29.0077,30.0568,1.0491
BaY4W,39.747,31.4652,-8.2818
Ba2TbCeO6,12.5415,10.3026,-2.2389
ReRhCl,32.5606,29.4181,-3.1425
YScTl,23.7131,25.7363,2.0231
Ba2YErS4,44.159,34.8682,-9.2909
CeEu2WO6,12.8429,14.1748,1.3319
EuTlPbAu,44.3571,46.0038,1.6467
Ac2CdSeO6,18.294,19.1076,0.8135
Ca2NiF,6.3503,4.4718,-1.8785
SiOsRu2,28.913,26.6251,-2.2879
SiOsRu2,28.6485,26.6251,-2.0234
Sr2ErSbO6,7.4745,9.619,2.1445
Cr2GaSiO6,11.9155,10.3165,-1.5989
Sr2HoTcO6,8.3292,7.5791,-0.7501
ZrCu2B,38.6571,31.7265,-6.9306
Co2SiTcO6,23.5837,20.1743,-3.4094
CrRu3W,44.0652,32.9829,-11.0823
Y2NbC2,73.6165,50.2352,-23.3814
ZrRe2Ge,52.1501,49.3235,-2.8266
Cr2SiTcO6,13.8347,11.7938,-2.0409
LiTmAl3,6.2999,8.8183,2.5183
Ba2SiPd2,5.7336,5.9033,0.1697
Si2PIr,25.7143,21.6761,-4.0382
RbMnBr3,21.7954,19.9267,-1.8688
YHo3Al,27.8511,26.5744,-1.2767
CsAgSnTe6,33.319,31.254,-2.065
NdSm3(ClO)4,7.5626,9.5021,1.9395
TaNiAg,24.9264,25.8418,0.9154
YHo2NbN4,30.2438,27.4798,-2.764
V2SiMoO6,34.444,27.2074,-7.2366
Er2ThRu2,31.0049,34.4141,3.4092
RbZn2Br,5.3396,6.8378,1.4982
Al2P,20.1303,18.5648,-1.5655
VFe2SiO6,19.5043,15.0406,-4.4637
Ta2PdC2,34.1642,30.488,-3.6762
SmU(PbO3)2,10.5877,14.8575,4.2698
SmBi2PtO6,21.8733,21.0195,-0.8538
Er2Be4Si3Ru,24.6295,21.3546,-3.2749
HfMoP,37.2825,25.1949,-12.0876
Rb(ZnGe)4,5.8389,6.1742,0.3354
BeCd2Sb,22.1302,20.2769,-1.8533
SmNpTl2O6,10.8777,14.9626,4.0849
Ba4Na2Pd,9.4345,8.7902,-0.6443
BeCd2Sb,22.1179,20.2769,-1.8411
NdBrO,9.7579,12.468,2.7101
BeCd2Sb,22.0553,20.2769,-1.7784
Y2ScTlRu,23.4419,21.6951,-1.7468
Sr2CePuO6,6.8287,8.3079,1.4792
BeCdSb2,28.4338,24.5727,-3.8611
Sr2CeHfO6,10.6635,10.7643,0.1009
SrTlSi3,31.4279,24.0181,-7.4098
Sr2CeSmO6,0.0,1.8325,1.8325
Ce(HCl3)2,0.5784,3.6339,3.0555
KCuRe2,26.0241,27.9796,1.9555
FeNiSe2,48.0124,36.2781,-11.7343
Sr2CdTeO6,26.0135,22.972,-3.0416
Sr2NpCdO6,10.7412,10.9276,0.1864
LiHfNb,74.3273,57.4631,-16.8642
Bi2Sb2Au,49.52,48.2512,-1.2688
YSc2TlRu,21.6936,19.96,-1.7337
BiSb3Au,47.8232,43.7558,-4.0674
YScTlRu,25.7694,24.5728,-1.1966
TbLuInOs,30.1797,33.8354,3.6557
AcAl4Pt,22.138,20.3312,-1.8068
Zn2InF,8.2058,10.4208,2.215
Pr2NdSi2,2.6699,2.9132,0.2433
AcAlPt2,60.5195,50.4572,-10.0624
SbRhCl,32.4585,25.9866,-6.4719
InBi5Pt4,64.8918,55.6887,-9.203
Li2BeOs,11.6333,13.0993,1.466
Ac2AlZn4Pt3,42.4013,35.6633,-6.7379
TlCoHg,19.9203,20.8412,0.9209
In(BiPt)2,56.7941,48.7541,-8.0401
Sr2ErNbO6,9.4513,10.8679,1.4166
Sm3Y(PuTe3)2,39.1833,39.021,-0.1622
Sm5(Y2Er)2,21.9766,23.9019,1.9253
Sr2PmPtO6,5.9639,6.7709,0.807
TbSi2Ni5,11.4537,10.8848,-0.5689
CsMnSi3,36.6451,27.5811,-9.0639
DyI2,23.2639,26.389,3.1251
Y2TeRu2,20.0374,16.0522,-3.9852
Sr2TbPaO6,1.2172,5.9318,4.7146
Sr2DyTcO6,13.5844,10.9099,-2.6745
MgCdSnBi,24.3171,25.6614,1.3443
Tb2Cr2I,12.3233,15.4562,3.1329
Rb(ZnGa)3,5.4223,6.3552,0.9329
NaPaCd4,28.3139,28.8063,0.4924
SrCd2IrO6,14.9257,14.9159,-0.0098
SrPu(BiO3)2,22.5795,23.1265,0.547
Sr2TbPuO6,6.3506,8.7451,2.3945
SrTcAgO4,22.025,19.5101,-2.5148
SrBi(PbSe2)2,58.6032,51.7441,-6.8591
Sr2YBiO6,8.5648,10.2212,1.6564
AcTmPt2,67.4425,50.6508,-16.7917
V2SiIr,70.9982,59.342,-11.6562
Sr2NpUO6,5.3381,9.9213,4.5832
Be3ReW,23.9203,22.2744,-1.6459
Sr2AcWO6,15.6122,15.9735,0.3614
Sr2PuUO6,9.8489,12.5147,2.6658
Ba2AgP,14.5744,12.2382,-2.3361
Ba3AgP,14.7378,10.6247,-4.1131
ReAs2Pb,28.5647,30.8755,2.3108
Ce4FeSb,24.0194,23.7263,-0.2931
TbPmNi,19.0941,22.1925,3.0984
ReAs2Pb,29.0937,30.8755,1.7817
ReAsPb2,39.657,41.5681,1.9112
ReSiPd3,22.6449,22.6139,-0.031
ReAsPb2,39.0719,41.5681,2.4962
PC2,38.5075,23.5402,-14.9673
Re3SiPd,33.5143,33.6592,0.1448
SrPt(PbO3)2,14.4696,14.6382,0.1686
PrLuSb,24.0935,24.0101,-0.0834
CaGaFeSn2,23.2384,20.9826,-2.2559
Sm6As2S3,29.3812,26.7496,-2.6316
Ac2Ce(AsO)2,23.7472,24.9423,1.1951
Zr2CuRu,55.148,48.799,-6.349
Y9(Co13P6)2,28.5627,21.3292,-7.2336
SrRh(PbO3)2,10.1945,11.3376,1.1431
SrCd2RhO6,5.4007,5.4342,0.0335
SrPr2RhO6,2.6118,1.0918,-1.5199
SrPm2HfO6,18.6693,17.1945,-1.4748
CsGeTe2,29.3338,29.3741,0.0404
TaAsSe2,50.3207,45.709,-4.6116
Sr2CoTcBi,36.8931,34.1303,-2.7628
TlMoOs2,41.3457,36.9827,-4.3629
Y2AlRh2,30.0907,22.5775,-7.5131
ZrTiCu3,27.6762,23.7221,-3.9541
Ac2TbDyO6,7.5028,11.8708,4.3681
Ac2TbHfO6,18.7245,18.6524,-0.0721
YAgSn,31.0833,23.9463,-7.137
TlMoOs,41.0376,39.9174,-1.1202
AcTmAsPt,47.7492,43.8607,-3.8885
Ba2DyTcO6,2.7834,3.8764,1.093
CsAc3(TeO3)4,19.6757,18.6033,-1.0724
Ac2TbTmO6,7.5848,12.255,4.6702
LiLa4Br,42.9116,32.5061,-10.4055
Zr2Br,62.4652,55.2627,-7.2025
Pr2ErSi2,3.5405,3.7949,0.2544
AcHg(TeO3)2,9.8628,9.2767,-0.5861
Ba2Ce(TcO4)3,15.9706,15.4715,-0.4991
Zr3GeC,72.4722,59.4385,-13.0337
PSeCl2,16.876,14.4683,-2.4077
Ca3PrNi,9.8827,9.0672,-0.8155
KSbIr,34.9804,32.9807,-1.9997
HfBiRu,71.2749,59.5674,-11.7075
Ba2PaTcO6,13.953,13.4161,-0.5369
RbLiBr2,10.8829,11.0688,0.1859
Sr2AgAu,23.518,24.3737,0.8557
YAgBi,33.3401,32.875,-0.4651
AcTbPr3Sm,12.7368,14.5965,1.8597
Cd2TcRhO6,17.8678,15.5317,-2.3362
ZrPCl2,23.0882,20.8047,-2.2835
Ba2TcRhO6,5.9819,5.1809,-0.801
Ca3SnTe4,24.2468,23.8559,-0.391
CaPr2Ir,16.8538,14.5576,-2.2962
Ca3SnTe4,24.2356,23.8559,-0.3798
K2BiW,26.5343,28.8288,2.2945
Ce5(TaSe6)2,39.4405,34.4601,-4.9804
CuRePS2,49.5368,37.7563,-11.7805
Cd2NiAs,23.3416,20.1595,-3.1821
Y4AgBi,17.8595,19.2952,1.4357
ThScCu2,36.6908,34.1388,-2.552
InW2,24.4833,32.3238,7.8405
ThCu2Ru,24.5793,27.2567,2.6774
NdHoNi,19.6116,22.6886,3.077
Be2SnW2,17.3799,20.3586,2.9787
Y2Zr2Pd3,49.0906,43.105,-5.9857
Y(AgSn)2,32.0341,25.8982,-6.1358
NbSbPt3,91.9628,68.7951,-23.1677
CaPbBr2,26.7373,25.1771,-1.5601
Be2AsPb,20.1906,19.2804,-0.9103
NaRu3Pb,27.1737,27.6391,0.4654
TbTe(PbO3)2,10.9572,13.1613,2.2042
HfOsRh2,70.4182,54.3497,-16.0684
Be2AsPb,19.977,19.2804,-0.6966
AcTi(BiO3)2,17.3786,18.135,0.7564
InCuTe,23.0684,23.7557,0.6873
CsTi2InO6,6.5118,5.8155,-0.6963
Tl2TePbO6,20.134,20.9709,0.8369
UTl2TeO6,20.869,20.93,0.0611
EuTmPb,36.899,39.0124,2.1134
LiLa2Br6,17.4477,15.6429,-1.8048
Sr2Pb3,33.1264,35.1852,2.0588
ZnBiBr2,20.9947,22.8681,1.8734
NpTiCr2O6,13.6661,13.984,0.3179
ErAl5Ru,8.1166,10.2593,2.1427
TcBr,26.2764,24.4355,-1.841
Bi2SbW,49.1204,49.1537,0.0333
ZnTcBr2,31.7901,27.8182,-3.9719
RbTi(GaO3)2,10.6432,9.8955,-0.7477
Ac2TmHfO6,19.0774,19.1003,0.0229
Zr3CdCu,65.56,56.3237,-9.2362
ZnTcBr2,31.5173,27.8182,-3.6991
Cd2FeTe,20.3323,21.4672,1.1349
CdFeTe2,25.8133,25.2127,-0.6006
ReSi2,23.17,21.8688,-1.3012
Ga3Pb5,36.0453,37.6283,1.5829
Ac2PmErSe5,45.6311,40.803,-4.8281
Cd2FeTe,20.4374,21.4672,1.0298
ScSi2F,29.5313,25.965,-3.5663
Pu2Ag2Pb,44.3018,43.485,-0.8168
TaIn2Co,42.1642,33.8809,-8.2833
CdReSb2,62.2921,53.4931,-8.799
Ta2BeSe,27.2217,27.5703,0.3486
TiTl2BiO6,10.2944,11.8236,1.5292
Tb3In3Ru2,21.0808,22.924,1.8433
OsSeO2,17.1501,16.4427,-0.7074
Fe2(HPt)3,28.479,20.6825,-7.7966
OsPb2,44.0078,49.3965,5.3888
CdReSb,74.3115,58.9932,-15.3183
ZrGeC,32.3463,27.2011,-5.1452
AcTmTl2O6,18.2436,20.3877,2.1441
Si2Tc2Ir,43.2012,37.5702,-5.6311
Cd2ReSb,60.6575,49.156,-11.5015
Ag3(SnS3)2,39.3182,29.544,-9.7742
HfVCr2O6,29.9007,22.2324,-7.6683
InCoW,23.8146,25.5109,1.6964
Sr2Ac3Pt4,57.99,48.3973,-9.5927
NaTaZn2,16.8154,18.6587,1.8433
Pm2VAgO6,19.5113,17.7103,-1.801
ZrBi(PbO3)2,18.0744,19.7809,1.7065
Sm5Y2Th,21.916,24.5529,2.6368
Tb2Sm(SiNi)2,19.1757,17.693,-1.4828
SbPOs2,33.3795,34.2584,0.8789
PmPrHf,48.4088,38.8539,-9.5548
CaRhBr2,18.6874,15.8482,-2.8392
BaYB,61.7439,53.747,-7.997
CsSrAl2,9.9778,11.4803,1.5025
Hf2TcBi,108.4771,84.3744,-24.1027
Os2Pb,37.8885,46.8812,8.9927
NaLiAg4,24.9825,20.198,-4.7845
MgGeAs3,10.9333,10.1199,-0.8134
TaSi2Se,29.2152,25.1121,-4.1031
VCr2PbO6,21.4259,18.2971,-3.1288
CaRuBr2,15.8738,14.1339,-1.7399
VCu2RhO6,18.9769,15.3974,-3.5795
Zr6GeC,82.2243,68.6112,-13.6131
VCr2SnO6,37.0567,28.9235,-8.1332
VZnCr2O6,22.5321,17.4723,-5.0598
Ba3Y2O6,18.1035,16.9259,-1.1777
Mn2VBiO6,74.2145,64.8192,-9.3954
La3Ag3Au,41.9448,33.6231,-8.3218
NaZnSb2,27.7172,24.8406,-2.8765
EuBrO,11.6859,13.3702,1.6843
TlPOs2,35.5989,38.0668,2.4679
Ac6Pt2RhS,66.2041,58.8507,-7.3534
Be3SnW,20.9967,17.7661,-3.2306
BaYSi,42.7985,35.7941,-7.0043
Ac8PtRh3S4,59.9046,52.2808,-7.6238
TaTlCd2,32.687,33.6659,0.979
Tl2BiWO6,15.0987,17.0781,1.9794
Ta2CrPd2,35.6011,31.15,-4.4511
CaMgZn2,6.2086,7.0504,0.8418
Na(CuRu)2,10.2832,12.7522,2.469
Ac3Ag3Sn,39.7593,39.0018,-0.7576
BaYSi2,35.5896,28.578,-7.0116
Pm2PrSi2,8.6213,9.3032,0.6819
YNb(PbO3)2,24.425,23.7492,-0.6759
Ac2NdYO6,14.287,16.5469,2.2599
CsScGe2,20.2888,16.643,-3.6458
Sn2SbN,31.2426,27.7864,-3.4563
ZnMoSe2,29.8597,25.6482,-4.2115
CePr2Au,15.3506,17.8639,2.5133
ZnIr2Pt,44.4254,42.6088,-1.8166
Rb2CaMnCl6,16.5463,13.0341,-3.5122
CaTaBr2,16.2054,17.4002,1.1948
Zr2GaCu2,45.2111,38.8647,-6.3464
Os3RuS,40.9598,40.0428,-0.9169
Be2BiBr,13.6018,16.0772,2.4754
Tm2HfNpAs4,38.2569,34.8981,-3.3588
SmZrGaCu,35.9809,32.7825,-3.1984
PmPrNd2,17.3385,19.2931,1.9546
Cs2Te,29.2943,28.8471,-0.4472
CaTcBr2,30.2307,26.3851,-3.8456
SrNpZn2O6,12.7898,11.4314,-1.3584
RbSc2Si,23.806,17.3606,-6.4454
BaYB2,46.8758,40.0532,-6.8226
SrPuZn2O6,24.6167,20.8447,-3.772
RbAgP2,13.4159,9.3868,-4.0291
ZrBi2PbO6,24.8486,25.5457,0.697
HoZrGaCu,36.7465,33.5441,-3.2024
BaY2Si,50.6754,43.1478,-7.5276
RbScSi,17.1145,15.5581,-1.5564
CaTcBr2,29.8859,26.3851,-3.5008
RbScSi,26.0388,15.5581,-10.4807
ZrGa2CuO,39.0926,32.221,-6.8716
RbScSi,25.2212,15.5581,-9.6631
CaTeBr2,16.6598,16.2977,-0.3621
K3LaF6,11.1156,10.7236,-0.3919
AcSmPt10,81.3257,60.3037,-21.022
ScFeSb,37.5268,34.1017,-3.425
ZnSb(PbO3)2,21.8559,20.6938,-1.1621
InCoAu,26.2597,27.1632,0.9035
CrGaRu2,6.5181,10.5873,4.0692
RbCu(AsO3)2,4.8464,4.6224,-0.224
ZnRh(PbO3)2,16.0456,14.8773,-1.1683
Pb7Au5,50.3527,51.3008,0.948
CsNi3C,23.9621,19.6382,-4.3239
K2PbF,17.1838,17.7715,0.5877
SnBiMo,34.2411,27.253,-6.9882
ZrGaCuOs,40.3103,37.777,-2.5333
ZrBi2PdO6,27.0682,26.0016,-1.0666
Th4Pd12Au,30.09,31.9156,1.8256
Ac2DyZrO6,14.4504,17.1146,2.6642
HfZrCd2O6,26.1942,22.6716,-3.5226
ZrPaTl2O6,24.9285,25.9843,1.0558
InTcC3,62.361,45.9079,-16.4531
CeZrCuRu,37.5157,35.3665,-2.1492
Rb4S12Br,40.799,28.8363,-11.9627
CaTiV2Os,64.0366,52.7185,-11.3181
Ba3YV,49.1022,39.0429,-10.0593
GeIrW2,32.7274,37.3658,4.6384
Rb2SrLaI6,19.2916,18.2434,-1.0482
Ag6SeOF2,21.8616,17.7093,-4.1523
RbPrBi,16.902,18.3811,1.4791
Sr2ZrVO6,17.9028,15.0476,-2.8552
BaYF5,18.7322,17.4886,-1.2436
GdGa5Au,16.5845,17.8868,1.3023
PuV(PbO3)2,21.6467,22.2684,0.6218