Formula,E_hull_DFT (eV/atom),E_hull_ML (eV/atom),Delta (ML - DFT)
Hg2Sb2Pd,19.467,17.2662,-2.2008
ReIr2Pt,54.1556,50.9967,-3.159
RbCa2Al,3.8578,5.0199,1.1622
GaNiAs2Br,17.0649,14.4524,-2.6125
Rh(SeI2)2,34.1973,29.5839,-4.6134
Y2Hf2Hg,71.3898,51.2034,-20.1864
Sc2GaAsBr,19.2949,15.0816,-4.2133
GaAsPbBr2,24.6976,23.3918,-1.3058
Sr3Mn2(CuP2)2,26.871,22.3983,-4.4727
Tm2BeSi4Ir3,28.6189,26.8337,-1.7851
GeRuPt,31.4883,27.74,-3.7483
NaScTi,20.4774,17.8309,-2.6465
LiHf3V,112.8715,80.6454,-32.2262
GaTeI2Br,21.9957,21.1438,-0.8519
Ga2PAuBr,23.3172,21.2948,-2.0224
FeAsSe2,46.777,37.5702,-9.2068
Ir2W,41.5864,47.8565,6.2701
SrYHg2,15.6666,14.1271,-1.5395
Er3(PbO)2,26.027,27.6477,1.6208
CdTc3Ni,63.6793,52.7173,-10.962
Ac4NiPtAu2,55.3044,53.718,-1.5864
Ga2TeCBr,27.4602,22.6727,-4.7875
Sb2TeRu,20.6143,21.2341,0.6199
EuGaBr2,14.143,15.7741,1.6312
CdGaTeBr2,18.3737,18.1378,-0.2359
Ga2TeBr,17.4693,17.6669,0.1976
RhPb3N,42.5759,40.1798,-2.3961
Zn2FeW,18.0567,16.7051,-1.3516
Sr2YHg,16.978,17.6115,0.6336
Yb3ZnIn3Si2,22.2989,21.7506,-0.5484
Ga3IrBr,17.3315,17.7432,0.4117
Ca(YHg4)3,9.2801,7.7308,-1.5493
RbSnSe2N,32.4743,25.7584,-6.7159
Tl3PI,38.0006,36.7733,-1.2273
TaGaBr2,37.88,31.8616,-6.0184
Cd2GaBr,14.4251,15.2276,0.8026
FeTcCl2,29.007,23.8652,-5.1418
MnBeCu3,28.7175,23.061,-5.6565
MnBeCu,41.0589,33.0707,-7.9883
MnBeCu2,32.4911,26.6431,-5.848
MnCrTc2,64.8903,55.366,-9.5243
YGaBr,0.0,2.3706,2.3706
ScGaAs2Br,19.1422,15.5216,-3.6206
BeGa2SiBr,17.6076,15.0475,-2.5601
CdGaSiBr2,13.402,12.2452,-1.1568
FeAg2Sb,33.0909,26.6374,-6.4535
ZnPtO2F,33.1398,24.1852,-8.9545
PdCSe2,44.3223,35.2583,-9.064
Na2PaSe4,38.3098,31.9185,-6.3913
Ac4AsPtBr2,46.9881,44.955,-2.0331
Ca3U3BeN8,20.1943,19.5299,-0.6644
Sm3HoTm6,24.4703,27.2513,2.781
ScSbBr2,26.166,24.123,-2.043
RbBa2Cr,4.7898,4.7385,-0.0513
YbZnBi2,34.5306,36.6381,2.1076
CsRb3Ru,29.1617,24.9709,-4.1909
Sc2Sb2N,17.5335,14.2774,-3.2561
TiAgI2,17.3229,17.1821,-0.1408
AgSb2Br,40.9092,32.8933,-8.0159
Sc2SbBr,23.6826,22.516,-1.1667
LiInIr2,28.0674,29.293,1.2255
HfTe2I,62.2655,51.696,-10.5696
ScSbBr2,26.0817,24.123,-1.9587
Nb2SeN2,56.9397,46.761,-10.1786
SrY3Hg2,23.281,19.4086,-3.8724
CsMgCu2,13.1144,11.1037,-2.0107
Zn(CdSe)2,26.2045,23.1327,-3.0719
Rb2Sn2Se2O,32.9313,27.2574,-5.6739
CeNd2N2,14.1019,16.2685,2.1665
BaLaSc2,15.7346,14.1613,-1.5732
CsSnTe3,30.8972,30.1685,-0.7287
AgPd2I,22.6627,22.2846,-0.3781
BaLaSc,19.1629,16.2743,-2.8886
Ac2HgN2,26.2175,26.7404,0.523
Ba2LaSc,14.4701,12.1457,-2.3244
SrY5Hg6,21.6501,17.6536,-3.9965
CsSnTe3,34.0506,30.1685,-3.8821
HfSc2I,44.5662,35.0944,-9.4718
SrGaSn,3.3076,8.9066,5.599
Li2GdSc,9.6686,11.0168,1.3482
HgSb2,29.9993,25.6536,-4.3457
LiScMn,36.1112,29.9572,-6.154
AlAgC,26.9425,20.6707,-6.2718
Si2Ru2Rh,25.8,19.894,-5.9059
Mg(CuGe)2,7.1432,6.6398,-0.5034
PrHoSe2Br,20.2734,17.9844,-2.2891
CdGeRu,10.0614,14.2234,4.1619
CuMo2Ir,27.2753,24.13,-3.1453
Ca2YHg9,4.4896,4.2052,-0.2844
La2InI2,29.2311,24.4366,-4.7946
TaAsRh,31.924,30.1203,-1.8038
NdEu2Al,21.2472,22.5782,1.331
ScCu5Au8,34.229,33.8738,-0.3552
Ta2PbW,41.6201,45.8294,4.2093
NbCr2I,40.1792,32.8463,-7.3329
ScCu2Re,36.6375,30.8602,-5.7772
NaTeC2,44.4836,33.9259,-10.5577
PrNdSm2,17.484,20.5398,3.0558
PrTh2Au,43.5062,46.7656,3.2594
BeCd2In,15.7244,16.3694,0.645
BeCdIn2,16.033,16.2077,0.1747
YTlHg,33.597,31.4597,-2.1373
Tl2Sb2Au,44.9684,42.8133,-2.1551
RbRuSeN2,40.1254,33.4357,-6.6897
OsRuSe2N,51.4409,44.4814,-6.9595
MnCrRu2,35.2369,32.7015,-2.5354
CuOsRu2N,38.9861,35.9547,-3.0314
GaRu3S,23.971,21.7787,-2.1923
PRuN2,46.1031,39.3635,-6.7397
Pm2PrLu,19.6035,21.5886,1.9851
ScTeP,45.6736,36.6136,-9.0599
CsBa3N,5.0887,5.7628,0.6741
SnRu2N,38.9515,37.096,-1.8555
RbCaTh2NiS5,36.4565,30.7459,-5.7107
SrSn3C,27.792,24.1437,-3.6483
GeRuN,34.1676,33.1582,-1.0094
TmZn2Co2Ge,20.4352,14.6365,-5.7988
K3Te,18.9436,16.923,-2.0206
Sc2V3Ge4,37.1013,25.4738,-11.6275
POsRuN,40.0586,38.397,-1.6617
K3Te,18.9685,16.923,-2.0455
Li2ScMn,27.3891,22.9594,-4.4298
TbNd2SmEr6,23.3199,25.4955,2.1755
ZrSbW,60.8011,55.6587,-5.1424
TaRuI2N,40.2931,37.5131,-2.78
BeAgPb2,35.2297,34.0002,-1.2296
TaCoMoOs,49.4151,39.7857,-9.6294
TaCr2RuN,53.7229,42.2519,-11.471
Ta2RuRhN,49.6036,44.6222,-4.9814
Ta(SO)2,25.7592,22.4005,-3.3587
Cs2BPd,15.9611,17.1971,1.236
Ho3Cr2Pb3,32.4768,33.1958,0.719
FeGeRu2N,44.1574,34.938,-9.2194
TaZnI2,23.3023,24.0199,0.7175
Ta3SiI,31.9395,32.2362,0.2967
LiSc3Mn,23.5073,20.6789,-2.8284
Ge2BiPb2,31.8896,33.354,1.4644
Ta2PtAu,52.2794,49.2954,-2.9841
ZnFeAu2,27.6179,27.5245,-0.0933
Y2CuHg2,20.8046,15.6657,-5.139
Cu(MoOs)2,27.153,25.6202,-1.5328
La2TlI,43.6973,37.918,-5.7793
TaPtAu2,55.2504,51.285,-3.9653
HfSnRh,70.4977,53.1664,-17.3313
Be2ZnFe,16.8361,10.5677,-6.2685
Ni8Pt2W3,31.0944,25.1123,-5.9821
HfSnRh,62.8066,53.1664,-9.6401
SiRu2Se,23.8148,19.0057,-4.8092
Tm3Cr2Fe7,16.5539,15.4961,-1.0578
In2GaPb2,27.8116,29.4156,1.604
Be2ZnFe,16.8897,10.5677,-6.322
Be2ZnFe,17.0255,10.5677,-6.4578
Ir(IO)2,47.3776,40.173,-7.2046
BeZnFe2,13.0343,9.0176,-4.0167
CoGeBi,7.983,13.9021,5.9191
Tm2Cu3Ni2,13.1171,14.8999,1.7829
Cu3(NiAu)2,18.2023,19.9488,1.7465
Ba(ZnSn)2,8.7154,10.7584,2.0429
BeZn2Fe,13.5192,10.363,-3.1562
LaAs3Ru,23.3321,17.6784,-5.6537
Tb2Cu3Ni2,11.9961,13.7578,1.7617
Ge2SeI,19.1226,18.2586,-0.864
SrCrFe,25.5715,20.1676,-5.4039
Gd4CoPb2,36.1618,35.9044,-0.2575
CsZrSc,30.4404,28.5146,-1.9258
SrPCl,3.3503,7.0598,3.7095
NaTbInPd,21.8134,22.6404,0.827
BeZn2Fe,13.5391,10.363,-3.1761
Cu2IrBr,20.8407,21.3024,0.4617
EuNpPt2,68.6795,57.7818,-10.8977
Pr11Tl9Cu4,18.7337,18.6278,-0.106
Sm11Tl9Cu4,31.3166,32.4464,1.1298
InCo3Te,16.9769,17.4682,0.4913
RbTlS4,46.2429,35.6055,-10.6373
ScTc2Au,96.9889,82.2077,-14.7811
PtRhS4,60.6456,43.3763,-17.2693
IrRhS4,53.1911,40.2738,-12.9173
CsNpRhO6,7.9807,10.2435,2.2628
BaSbS4,40.2968,29.6338,-10.6631
AcTe2Pt,59.2364,52.7706,-6.4659
Ca2ScCr,15.2713,11.6984,-3.5729
Ac2TePt,64.2274,58.9711,-5.2563
TbPm6NdSm2,20.5007,22.5774,2.0767
Sm3GeSeBr,17.375,18.791,1.4159
LaZrFe4,25.01,22.2463,-2.7637
Pm2RhN,24.2765,23.5371,-0.7393
LuAl3,6.0022,9.7498,3.7476
Sr2GaTc,28.6811,27.0746,-1.6065
NbRuBr2,50.5131,42.0523,-8.4608
Ce2PrSc,12.7386,15.9823,3.2437
LaNi3Se,24.8447,19.9171,-4.9275
Ga3GeIr,15.7124,17.2664,1.554
YCuHg2,17.687,13.9402,-3.7468
La2Pm2YCd5,22.81,21.5187,-1.2913
Pm3RhPb,34.8161,32.8965,-1.9196
InSnAs3,14.8665,15.4098,0.5433
Ac4NiPt2,62.8494,56.351,-6.4984
ScAgMo2,25.6597,24.7113,-0.9484
Be(FeGe)2,11.4733,9.5161,-1.9572
InSnAs,9.4135,11.4319,2.0185
ScMn2Sb,63.847,51.1675,-12.6794
MnCoTe2,48.6301,42.7225,-5.9076
ErScAgRh,28.1213,25.4096,-2.7118
BaAgPb2,30.8137,31.0726,0.2589
Ac(In2Pt)4,44.3027,37.1395,-7.1632
LiAlRe2,17.6446,22.9137,5.2691
CaY2Hg,22.7431,20.5441,-2.199
SrOs2Se,30.7678,36.7125,5.9447
Cs(CoW)2,18.3352,26.2879,7.9527
Be2Zn2Fe,11.9395,8.1586,-3.7809
TaS3,44.1943,34.2978,-9.8965
AcAsPt,53.7454,47.6616,-6.0838
SiRuPt2,49.3057,36.0856,-13.2201
CeMnSb,49.4696,44.0381,-5.4315
Zr2BeFe2,39.0021,32.2957,-6.7064
PmSmSeBr,26.082,25.4878,-0.5943
TcSb3F,47.445,39.7469,-7.6981
ScCu5As,15.9751,14.4618,-1.5133
AsPBr2N,21.5288,17.4217,-4.1071
YRe2F,32.1656,33.0734,0.9078
UNi3C,29.7337,26.8504,-2.8833
AlPd7,15.6142,17.3794,1.7652
CsCaOs2,24.5897,27.3032,2.7135
BaY2Hg,40.8498,34.2335,-6.6163
K(ScRe)2,48.8309,38.8725,-9.9584
CuIr2Pt,39.7898,38.1679,-1.6218
Li5AcPt2,30.2179,24.5968,-5.6211
PrAg2Sn,18.0742,16.1914,-1.8828
LuScGaAg,19.1339,19.9502,0.8162
Hf2Zr3Sc2,84.6833,66.5639,-18.1194
NaAg2B,23.3192,19.0009,-4.3182
Sc2TcRh,75.4262,61.2045,-14.2216
Hf3(Zr4Sc)2,94.6982,74.7676,-19.9306
Hf2ZrSc,89.0994,66.9271,-22.1723
TmZnGeAu,23.2483,25.6798,2.4315
HfZrSc2,63.0952,50.7106,-12.3846
Na3TbSb2,31.1244,27.4237,-3.7006
Sb2Au,45.6431,41.876,-3.7671
Ac2Y(TcO4)3,29.6925,27.9103,-1.7821
YPS4Br,41.5795,33.1163,-8.4632
Sr8Ge2N,13.5107,13.5713,0.0606
InPdPb,21.5785,25.5881,4.0096
SrGaI,11.1683,14.463,3.2947
NpIn2(Cl2F)2,14.3993,15.5657,1.1664
Ac(Pm2Y)3,20.6668,22.7677,2.101
Cr2IrAu,21.6657,23.5428,1.8772
Ac2BiPt,67.4422,63.3717,-4.0705
AcTmPt,49.3524,45.2673,-4.0851
Li8AcPt4,32.244,24.7264,-7.5176
PrThPd4,21.3515,24.1423,2.7908
InCoPb2,31.7847,31.7548,-0.0299
AcNpPt2,77.755,66.7602,-10.9948
Mn2Al4C5,46.8754,35.6949,-11.1805
YTa4Hg,38.9946,36.8926,-2.102
LiPrYTc,60.4817,51.1889,-9.2928
Eu2Ni3Ge,16.7141,16.6184,-0.0956
Ba2SbAu2,23.8687,23.9918,0.1231
In2Co2Pb,22.92,22.9171,-0.0028
TlInCoPb2,38.3662,37.6015,-0.7647
GdNiGe2,18.0915,17.3465,-0.7451
BaSbAu3,37.0329,36.5158,-0.517
MnGa3Sb,34.1756,29.4158,-4.7599
Pm12Sc3Pd5,7.881,8.6765,0.7955
InCoPb2,35.5381,31.7548,-3.7833
Gd3In3NiGe2,20.5022,20.6552,0.153
Te2Pb2Se,43.9489,41.4869,-2.4619
YV2Hg,77.506,60.2439,-17.2621
Pr5YTe8,23.019,22.0945,-0.9245
LaSmSb,23.3939,21.5463,-1.8475
USnPt,43.9287,40.3899,-3.5388
In3CoPb,25.5303,24.9799,-0.5504
NaAgS,26.7917,21.7709,-5.0209
Sn2MoPd,37.4557,27.8645,-9.5911
BeZn2C,25.9834,17.3005,-8.6829
BeZn3C,22.2339,15.0323,-7.2016
YReHg2,22.8897,21.9489,-0.9408
IrOsAu2,45.6591,48.4104,2.7512
La3(PmNi)2,30.8151,26.3955,-4.4196
YHgW2,33.1405,32.9665,-0.1741
CsBe3C,18.5044,15.6617,-2.8427
Nd2Th3Ni2,36.8956,39.5933,2.6977
GdTlRu,5.743,12.3921,6.6491
ScPbF3,16.4973,15.5579,-0.9394
TiPb3Au,47.4814,43.6817,-3.7997
NiRuS,19.8539,18.1184,-1.7354
Mn2IrRu,69.261,57.1947,-12.0663
IrOsAu2,45.6497,48.4104,2.7607
TmZnGaGe,13.5371,15.6557,2.1186
Pr2Er3Ni2,21.241,20.3951,-0.8459
K3DyF6,3.2905,4.8834,1.5929
Rb2NiPbBr6,15.1828,14.2709,-0.9119
TmAlZnGe2,15.738,15.4618,-0.2762
Y4Hg,20.3679,19.1949,-1.173
Pr2Tm3Ni2,21.7849,20.9601,-0.8249
PuAlNi2,21.9883,24.3241,2.3358
Re2Ni2Ir3,53.9694,43.1844,-10.785
SrLaAl2,17.8762,16.0019,-1.8744
MnSiIr2Br,44.8008,39.3929,-5.4079
Ta2Os,38.4444,44.3792,5.9349
AcSmPt2,66.1005,55.4704,-10.6301
Ho2GaSi4Ir3,24.6214,23.7586,-0.8628
Ac2SmPt,60.4441,56.4991,-3.945
SrYHg2,15.4309,14.1271,-1.3038
CsSn3Os,25.9433,27.2666,1.3233
Pb2CBr2,50.636,42.7432,-7.8927
CrSnOs3,34.0113,34.9094,0.8981
LiScI3,14.7528,14.7366,-0.0162
BeTeRh2,34.9981,28.606,-6.3921
K2YTe,19.7512,18.4066,-1.3445
AcNdPt,53.2685,46.9497,-6.3188
LaFeBi2,34.3656,33.8233,-0.5423
Hf(ZrIr)2,75.6232,65.2856,-10.3376
Y3TiHg,38.3438,29.3592,-8.9846
BaReC2,54.3175,42.117,-12.2005
TmHfPb,75.5838,63.363,-12.2208
SmSi2Ir5,35.6894,35.6147,-0.0747
AcTb3Pt,46.3567,42.4915,-3.8652
YCu2Hg,19.5355,16.085,-3.4505
GdTmRuPb,31.9097,35.117,3.2073
U2AlSi4Ir3,36.3964,34.9647,-1.4316
InGeAu,21.8985,24.4336,2.535
YZrHgPb,50.1248,45.0674,-5.0574
Na(La2Re)2,45.5854,37.4293,-8.1561
SmPuCoAg,33.6996,34.386,0.6864
TmSi3Ir,16.5749,16.3216,-0.2533
LiSc2Re,35.1399,28.2706,-6.8693
NdNiI,12.3678,17.2589,4.8911
Th(SnSe2)2,36.8677,33.4138,-3.4539
TmScCuHg,25.8774,22.7798,-3.0976
Zr2ReAgTe,63.287,55.5214,-7.7656
Sr2MgSnO5,18.6546,16.6619,-1.9928
Sr2MgInO5,1.3384,3.2077,1.8693
Th2SnSe,49.2493,49.8519,0.6025
Zr2Tl2Tc,78.854,69.9625,-8.8914
LiSc2Nb,38.5876,33.5791,-5.0085
PrGdYHg,18.6823,17.9,-0.7823
Na2AgPd2Au5,31.6941,31.8917,0.1976
Os2WAu,106.4604,91.6145,-14.846
La11Ho4Er9,39.4836,33.5689,-5.9148
La11Ho9Er4,39.2625,33.3491,-5.9134
Sc4BiTe2,18.38,19.3173,0.9373
La3Pt7Au2,72.1158,54.1912,-17.9247
NaCaSnRh,24.555,21.537,-3.0179
Sb2TeBr,43.8137,38.8379,-4.9757
Y3TcHg,70.4263,57.5111,-12.9153
Na2LiGe4Pt3,35.112,27.1438,-7.9681
Ta(NbNi)2,57.9822,51.3201,-6.6621
Ac2Sn3PtRh4,47.0257,39.5958,-7.43
Zr2TlTc,84.9901,75.4181,-9.572
ZrTlTc2,83.7374,73.0071,-10.7304
Ac(SbPt)3,60.8757,47.7544,-13.1213
LiNdLuRu,18.4752,21.8968,3.4216
KRbSe2,24.0364,19.814,-4.2223
Pd2Pt3Au2,57.0163,47.5469,-9.4694
LiAc2(SbPt2)3,66.2162,51.8188,-14.3974
YTh2Hg,45.6203,45.7706,0.1504
Ta3(IrPd)2,32.9184,36.9364,4.018
ThMnPd,45.5896,43.8943,-1.6953
Er2Pd3Au2,28.8182,31.0033,2.1851
Ac2Al3GaPt4,49.3931,40.2051,-9.188
K2ScHgF6,6.5684,6.831,0.2626
SrAlCr2,11.4727,9.4533,-2.0194
Mn2Tl3S4,58.798,48.0588,-10.7391
Mn2GeN,36.2194,31.8303,-4.3891
TaCdSi,24.8374,24.5798,-0.2575
ZrCu2Mo,43.5507,34.2969,-9.2538
CdIr2Se,34.1195,35.2843,1.1648
Zr2CuMo,66.4984,53.4711,-13.0273
LaPuI2N,27.1412,25.4375,-1.7037
Hf11Zn9Fe4,71.1667,48.9963,-22.1704
TcNi3Se,33.2624,28.4084,-4.854
Fe9Co4Ni11,44.4703,32.041,-12.4292
Y2ZnHg2,21.7246,18.3487,-3.3759
BeGaIr2,23.3753,27.1272,3.7518
ScMnN2,16.8079,15.1622,-1.6457
Fe2TePOs,39.6507,32.3118,-7.3389
LaTeI2,34.2091,30.7133,-3.4958
TcAgN3,28.5851,23.7038,-4.8813
K3Ag2Sn7,20.3251,19.4861,-0.839
Pu(InI2)2,28.5031,29.2378,0.7347
YbNdAs,17.7761,21.5213,3.7452
YZn2Hg,16.1781,13.5762,-2.602
K2BaAs5,5.0119,5.4751,0.4632
SnBiS4,45.9831,37.8568,-8.1262
BPdPb3,36.249,37.1603,0.9113
K3Tl5Au2,35.9841,36.1751,0.191
K2Na15Sr2,22.1505,18.4111,-3.7394
Ca2TeMo,19.0973,17.5202,-1.577
AcCd2GePt2,48.1694,40.3922,-7.7772
LaSmI2N,19.3718,18.0919,-1.2799
NaAg,14.2633,11.1532,-3.1102
Y2ThHg4,23.537,21.377,-2.16
Y4Zn2Hg,22.6696,19.1767,-3.4929
Ru2BrN,34.2746,29.9589,-4.3157
YZn2Hg,16.2964,13.5762,-2.7203
Tm3(Si2Ir)2,25.5402,23.9465,-1.5937
BeTc2Mo,53.2768,44.4184,-8.8584
Sr2IN,13.9638,14.1435,0.1797
PtAu3Br,50.4868,45.0244,-5.4624
YbAsPb,27.9072,30.396,2.4888
CeLuPd,25.069,27.9667,2.8977
Ac2TlInPt,52.6027,50.4041,-2.1986
V2GaGeP,63.3052,48.9876,-14.3176
Sm11In9Ga4,19.7869,20.8689,1.082
Tm11In9Ga4,22.4282,23.6729,1.2447
BaGaGeAu2,23.7882,23.3832,-0.405
Tm11Tl9Ga4,34.1603,35.3243,1.164
Mn4VFe,89.7641,72.0205,-17.7436
Nb5Ge3B,72.7921,58.9328,-13.8592
YbAsSe,45.4895,42.7629,-2.7266
Tb2Pd3Au2,28.0463,30.2097,2.1634
RbNi(IBr3)2,11.91,12.3589,0.4488
Yb(AsAu)2,29.5147,30.9182,1.4035
Sr2In8Pd,18.1475,19.1648,1.0174
YAlHg,21.4548,20.2843,-1.1705
BaLa(CuSb)2,25.8354,21.5745,-4.2609
LaNbCuSb2,59.5255,47.2124,-12.3132
Pr3ThSn12,18.294,19.4619,1.168
LaFeCuSb2,45.3048,35.4832,-9.8216
BaZrSeBr2,33.7945,26.9103,-6.8842
YAlHg2,18.935,14.8818,-4.0532
Tm2Pd3Au2,29.1803,31.376,2.1957
Ba2LiGe4Au3,18.2291,19.0319,0.8028
ThCuSb2,34.5246,33.8872,-0.6374
Ca(SnRu)2,9.5902,13.9315,4.3413
Mn2BeSn2,45.1105,35.956,-9.1545
La2Nd3Dy7,30.8333,29.8991,-0.9342
TlOsW,130.6685,108.1928,-22.4757
GePSeO2,19.7135,15.4161,-4.2974
Ac(PdPt)6,54.1428,43.2742,-10.8685
CaOsRu,13.7134,20.2818,6.5684
Ac2Ga3Cu12Pt,19.1337,18.0257,-1.108
TcMoW2,46.2765,47.0839,0.8074
Ac7La2Pm3,52.5427,51.2398,-1.3029
AcIn2CuPt2,48.0222,40.2483,-7.7739
Mg2ScCoRh,17.5204,13.0052,-4.5151
Ba2InGeAu,15.045,16.0954,1.0505
NaPmHo2,26.6542,27.9492,1.295
Mn2NbPb,91.7068,77.0183,-14.6885
BaInGe2Au,18.0957,18.7214,0.6256
AcMnCuPt2,63.1636,50.5996,-12.564
ZrScPS,61.3463,49.223,-12.1232
Ac3LaPt,66.6294,59.3192,-7.3102
LuPuPb2,52.4943,54.909,2.4148
Pr5In4Au,9.7301,11.9456,2.2155
LiY3Hg2,21.8126,17.7716,-4.0409
LiY2Hg3,14.8375,12.571,-2.2665
Sc4PS2N,36.1154,30.9311,-5.1843
PO,19.1638,12.7424,-6.4214
LiAcPdPt,42.419,38.295,-4.1239
Sm3(PdAu)2,28.6376,30.4145,1.7769
CsReSiO6,15.6435,14.6334,-1.0101
LiY3Hg4,19.6439,16.2071,-3.4368
HfTiS4,61.2589,44.82,-16.4389
NbAl2B,31.1371,29.1852,-1.9519
GdTlGe,29.5651,31.7351,2.17
Ba2GeMoAu,16.1102,15.9717,-0.1385
GdLuInNi,23.1997,24.8933,1.6936
Li(YHg4)3,9.607,7.8254,-1.7816
PrGd2Se,24.887,24.6349,-0.2521
LaYHg2,24.9962,20.0396,-4.9566
LiIrPb,32.451,34.9251,2.4741
Rb2HfPd,38.562,28.9228,-9.6392
Ge3Te2Au,22.6908,22.9824,0.2916
Ta2AsF2,41.7466,38.2595,-3.4871
CaTmTh,29.611,36.3931,6.7821
La2Y3Hg4,24.154,18.5963,-5.5577
EuAgSn2,24.8863,24.5914,-0.2949
ZrSnOsRu,43.9217,43.807,-0.1147
HfGeRh2,54.7821,38.5668,-16.2153
LiEuThOs,34.1254,37.2235,3.098
Be2ZnBr,10.6742,7.2212,-3.453
LaY2Hg,38.1004,30.1084,-7.992
LaY2Hg,38.103,30.1084,-7.9945
ZnGa2Re,23.4467,19.4432,-4.0035
LaNiTe,27.955,25.4435,-2.5114
Zn(GaRe)2,23.9083,21.7813,-2.1269
Nb2Ni2Bi,63.0443,54.8205,-8.2237
La3CeN4,21.5591,17.2215,-4.3376
Ce11In9Ir4,25.5381,26.8395,1.3014
Be2AgPb,23.1013,21.3076,-1.7937
RePOs2,52.4786,48.4672,-4.0114
TaWS4,49.6268,41.1395,-8.4873
LuScNiRh,23.1929,22.2031,-0.9898
Li3YHg,12.2884,9.7434,-2.545
PmY5Cd3,12.022,14.8099,2.7879
ReHgOs,27.8734,32.4257,4.5523
La2YHg2,26.5819,20.6039,-5.978
RePOs2,52.1603,48.4672,-3.6931
HoTmSc,17.7991,21.6108,3.8116
YThMgHg,29.7078,29.1762,-0.5316
RePOs,55.1056,51.0745,-4.0311
Rb2AlSi,14.4337,11.4854,-2.9482
TePtS4,59.7471,45.0504,-14.6968
AlReSi4,24.3657,19.6556,-4.7101
PuTeS4,56.2889,45.4061,-10.8828
PrGdAgOs,24.2768,25.4935,1.2168
Hf4Ge2Mo,86.7901,63.3859,-23.4042
Na2Ca4P,17.8704,15.2848,-2.5856
MnAuSe2,55.4989,46.193,-9.3059
MnAuSe2,61.1408,46.193,-14.9478
TiCrS4,47.1082,35.4033,-11.7049
Y6HgN,33.0645,29.3472,-3.7172
Pu11In9Ir4,47.388,48.3948,1.0068
Re2BiMo,33.0408,35.2987,2.2579
YRe3Hg,36.6098,36.2283,-0.3815
LiTbScRe,39.9605,33.8043,-6.1562
La2Ag(IN)2,26.9157,21.1378,-5.7779
RbSc2W,15.7476,16.2562,0.5087
Y2ReHg,35.5417,32.4513,-3.0904
Ta2SiS,36.0135,33.7521,-2.2614
BaTm2Al,25.5032,24.162,-1.3413
K6Ge2O7,8.1992,6.6608,-1.5384
K4UO5,3.5437,4.6491,1.1054
K3Sn5Br12,3.6947,4.557,0.8624
TaWS2,46.9471,43.0042,-3.9429
ThTaS2,53.3576,48.3925,-4.9651
Ac2PtSe,65.5647,58.6825,-6.8822
Sr6Bi2Os,25.4278,26.632,1.2042
TiSb(H3Au)2,13.3414,11.9275,-1.4139
CoSbBr2,32.8968,27.3693,-5.5276
TiIr2Au,34.1358,33.0967,-1.039
AcTb2Ho,36.6861,39.8162,3.1301
Bi2AsP,39.7565,39.0788,-0.6777
Hf6TaS,119.2696,85.3993,-33.8703
La3Ge2Rh7,42.3403,31.0588,-11.2815
Lu2PuSb,45.821,46.528,0.707
LiAlPb,19.4353,22.1306,2.6953
Ta(SN)2,31.6899,26.0722,-5.6177
TaPbBr2,36.2485,34.5448,-1.7037
Sr3TiSn,20.9519,16.9827,-3.9692
Ac4P3Pd12Pt,27.9226,27.4037,-0.5189
TaReSbTe2,42.6397,40.5362,-2.1035
CuSbIr2,28.8704,31.42,2.5496
Ca2EuPa,26.769,29.0207,2.2516
Ge(NO)2,1.7438,5.627,3.8831
Ni5Pb,14.1004,16.1192,2.0188
LiAl2Pb,17.8233,17.8289,0.0056
SnPW2,83.2305,74.3305,-8.8999
LiAg(H3Rh2)2,19.5009,14.0568,-5.4441
SiAsBr2,22.8485,19.7487,-3.0998
LiAl2Pb,17.7388,17.8289,0.0901
PmErLuPa,39.1371,42.4355,3.2984
NbTlB2C,62.5314,51.4495,-11.0819
PrTaAl4,8.3187,9.5574,1.2387
HfTlSe2,65.9536,53.1229,-12.8307
Ta3VS,79.2218,64.0687,-15.1531
Li2AlPb,16.9692,16.7662,-0.203
TcAsBr2,31.5102,28.0508,-3.4594
LuScAu,28.1916,30.9364,2.7448
Sc2CrW,22.7618,22.5529,-0.2089
Ac2TiSn3Pt4,58.0985,46.4512,-11.6473
Cr2ReW,24.0929,27.0252,2.9323
FeBi2Au,35.0619,41.2896,6.2277
ScCr2W,23.6568,22.5544,-1.1024
Pr12Nd6Sc,5.1504,6.0505,0.9
CuRhPb,36.408,33.7336,-2.6744
ScCr2W,23.5348,22.5544,-0.9804
CaOsRh2,30.4137,25.8192,-4.5945
Pr5Nd3Tl,7.2147,9.0221,1.8073
LiEu2Au,25.6859,27.0988,1.4129
ScCrW,28.4323,27.9461,-0.4862
YbAlSi,18.7584,19.3559,0.5976
SrAc2Pt9,78.1907,59.6157,-18.575
TbThBi,42.8312,47.3734,4.5423
AlV2CdC,70.6209,53.7399,-16.881
PrThZr,53.3229,50.9148,-2.4082
TaIn2Pb,32.7342,34.5362,1.802
Li2UTa2O7,21.3782,20.1851,-1.1931
RbGaRe2,24.6502,26.352,1.7018
InSi2Ir,23.3474,23.5821,0.2348
Rb2YNb,41.4236,33.4057,-8.0178
Ac2TiSi3Pt4,52.6481,41.2511,-11.3971
CsAg3Ir,33.0245,29.4,-3.6245
MoPbW2,36.8844,41.236,4.3515
TeIrSe,45.5925,42.8628,-2.7296
NbAs2CSe,67.3983,54.3362,-13.0621
NiBW3,33.0238,31.2917,-1.7321
Ta3AsC,25.2817,28.0888,2.8071
VTe2I,58.9549,50.8901,-8.0648
Na(BeCu)2,14.7549,10.9084,-3.8465
ZrSe2Br,50.7109,43.8816,-6.8293
ReB3Cl,11.6999,12.6704,0.9705
Cs3TeIr,32.0609,31.8062,-0.2548
NaHf3Be,93.0732,65.8355,-27.2377
Si2SbIr2,31.9034,29.8322,-2.0712
ZrTa2As,36.59,39.8812,3.2912
CoPbAu2I,37.9361,36.8289,-1.1072
AgTeIr2,40.4374,40.315,-0.1224
Tb2TlSb,36.5616,37.4158,0.8543
AcSnI,35.5728,37.12,1.5472
ZnMoP2,9.7154,8.76,-0.9554
GaAgGe2,11.2625,12.5711,1.3086
AgTeIr2,40.6406,40.315,-0.3256
Li2PtAu,34.2367,28.5146,-5.7221
HfTeS4,68.1114,51.1539,-16.9575
AcTh2Pt,71.3216,67.9513,-3.3703
Ba2CdGe4Au3,19.337,20.4625,1.1255
AgTeIr,39.5023,37.7108,-1.7915
Zr3SeBr,71.3996,59.4724,-11.9272
Nd2TaGe3Ir4,28.0318,30.5051,2.4733
AsPAuC2,38.2859,29.8549,-8.431
AcZn(SiPt)2,46.4536,36.61,-9.8436
LiNdZrRu,34.7797,33.6749,-1.1048
KNaPt2,50.5593,37.0997,-13.4595
RbFeCo,11.8069,9.1979,-2.609
Rb2CoMoF6,6.5202,7.0936,0.5735
Cs2YPt,34.7113,30.8096,-3.9017
CaAlCo,21.4841,14.85,-6.6341
ScTlAg,28.8955,28.3482,-0.5473
GdTe2Pb,40.7429,40.9335,0.1906
ScTl2Ag,34.547,35.0033,0.4562
Ac3Si2Pt9Pb,71.4539,55.067,-16.3869
Y2HgIrC,40.5102,34.2922,-6.2181
CsCaSn3,19.3205,20.0342,0.7138
Pb2WN,31.9899,35.1812,3.1913
Tm11In9Hg4,21.0179,22.2818,1.2639
YHg3Os,18.9142,17.872,-1.0422
K2PI6,16.1932,15.8496,-0.3437
Sm4DyHg2,18.1599,20.2024,2.0425
CsSc(CdI4)2,20.1219,20.8993,0.7774
Os2PdO,40.4573,40.6013,0.1439
BaPrAg4,19.9947,16.4003,-3.5943
LaZrAs,32.1704,29.0964,-3.0739
GeOs2Rh,35.7993,35.8184,0.0192
HfGe3Mo,38.0074,30.5942,-7.4132
AgPbBr2,31.212,31.004,-0.2081
SrCa2I6,10.5841,12.5364,1.9522
ZrBiSe2Br,52.623,44.0264,-8.5965