Formula,E_hull_DFT (eV/atom),E_hull_ML (eV/atom),Delta (ML - DFT)
Cr2PbS,25.5861,22.3547,-3.2314
InSbAs2,21.5599,22.0153,0.4554
Ta2P,28.883,29.9577,1.0747
CeTi2Rh,20.7309,19.4996,-1.2313
TbSc2Cu,26.6231,23.9993,-2.6238
Al3InSi,17.9622,16.0639,-1.8982
PmMgFe2,7.2052,9.6483,2.4431
BeNb3I,99.2373,80.7636,-18.4738
SrTiS2Cl,32.4091,25.4602,-6.9489
LaTl(AgCl3)2,17.7821,16.1238,-1.6583
CdSnSb2,32.553,29.7206,-2.8324
Ta2TiP,13.1619,19.2691,6.1072
TiCu2Sb,15.6934,15.8433,0.1499
ScCdAg2,18.7575,17.8796,-0.8779
La3HoTh2,46.9567,42.8418,-4.1149
AlZn2Cd,8.0384,9.9878,1.9494
Cd3SnSb,25.1321,24.1739,-0.9581
Ge4IrPt2,36.7071,30.7961,-5.911
Ho2ThSb2,36.3802,37.0902,0.71
Zr3WI,72.8501,63.671,-9.179
LaSnAu3,37.9804,37.8748,-0.1057
YIn3Au2,25.2003,25.4758,0.2755
Nd3YIn2,17.3354,18.7042,1.3688
LiYHoCd,15.3261,17.6288,2.3027
SbRuBr2,29.8675,27.2338,-2.6336
K(ScAg)2,13.2572,12.6839,-0.5734
Be2Al2Cd,20.708,16.1752,-4.5328
PuCo2Ge4Os,20.2348,22.4965,2.2618
Ca2LaMo,19.9274,18.0625,-1.8649
AsAuBr2,20.256,21.2845,1.0285
CaTaBe2,21.0388,18.3657,-2.6731
Na2TaNiOs,28.3189,28.0495,-0.2695
NaLaTbIn,30.5297,27.7701,-2.7597
Ca2TaBe,20.0814,17.9952,-2.0862
CrBrCl,25.7665,22.4662,-3.3003
Gd2Sc4C,19.9243,19.2049,-0.7194
HfThSc2,55.0719,47.3079,-7.764
HoScBeRh,22.8206,20.3287,-2.4919
NaTiS3,38.2899,28.0193,-10.2706
NpTl(AgCl3)2,19.8864,19.6963,-0.1901
CaTa2Be,27.8812,27.2636,-0.6176
CaTa2Be,27.8657,27.2636,-0.6022
Ca2LaMo,19.9384,18.0625,-1.8759
Pm3(NdIr)2,29.5902,31.4271,1.8369
Np2ScAg,35.5151,36.9441,1.4291
Sr4SI2N,19.1182,17.8734,-1.2448
TlInPt,41.47,36.5543,-4.9157
LiTe4W,35.6527,34.072,-1.5807
RbSrTa,29.93,22.7982,-7.1318
Ti2BSbS,23.6567,19.6844,-3.9723
Ti2SiRuS,22.0678,17.4873,-4.5806
KGdBi,31.6467,32.7573,1.1106
TlC2,60.9023,46.5119,-14.3904
AlSb2Au,35.0439,32.7471,-2.2968
BaPa2ZnO8,14.7164,14.3185,-0.3978
RbSrTa,20.3792,22.7982,2.419
Sr(CdTe)2,28.6516,26.5007,-2.1509
RbBaBr,3.4826,3.8334,0.3508
Rb2BaSrBr6,7.8531,7.9259,0.0728
Rb2BaBr7,7.3545,7.8927,0.5383
AcSm3Tm2,33.8624,35.5866,1.7242
AlInTe2,22.9677,23.7925,0.8248
TaMnGa2,58.7623,48.0571,-10.7052
LiTaNi2,6.7484,12.7463,5.9979
AcSm7Tm3,30.3531,31.2611,0.908
LaSc2Pb,28.4088,27.045,-1.3638
Nb3AgB,93.9481,74.5357,-19.4124
ZnFe,9.1405,7.0771,-2.0633
LaScPb2,40.0225,38.8221,-1.2003
Al2In2Te,14.6093,15.7603,1.151
Er2Ni2Au,23.0463,25.4503,2.404
As3RhI,22.2177,19.1499,-3.0678
OsIO2,35.3182,31.9635,-3.3547
SrU2Cl8,18.0523,18.0972,0.0448
Ca2TiS,18.0358,15.8001,-2.2358
Ga3Te4,27.4774,26.5071,-0.9703
Y3Zn2Ga,13.4767,12.3886,-1.088
Na2VSi,45.3036,35.5786,-9.725
HoTl(PO3)2,8.8512,6.4803,-2.371
Hg2BiAu2,27.7822,29.2776,1.4955
LiVSb,58.1593,46.4727,-11.6866
Nb2BSe,83.0666,67.4443,-15.6223
TbY3Hg4,21.7291,18.7209,-3.0083
Li4CuW,8.4983,9.7821,1.2838
K2BaRh,18.5393,14.6299,-3.9094
LiCuW4,27.6242,30.9187,3.2945
ZrNb3B,107.2648,85.7101,-21.5546
TmSc2Pd,18.631,18.9437,0.3128
AlZnCd,10.0976,11.3534,1.2558
BaLaSc2,15.7554,14.1613,-1.5941
ScSb2Mo,30.7852,28.3608,-2.4244
PaPbO4,18.216,20.4127,2.1968
Sr3InBi,22.8335,23.981,1.1475
La2U2C3,60.3292,48.7427,-11.5865
Ce2Mn2C3,61.184,46.8565,-14.3274
FeAs3I,28.5096,24.6836,-3.826
YPd2Au3,32.2314,32.587,0.3556
Sr7(HgAu)2,16.6098,17.5049,0.8951
Tl(GaAu)2,29.1692,30.7346,1.5654
Tb3Ce4ScS8,40.3293,33.2807,-7.0486
ZnFe2,5.2333,5.5463,0.313
FeCoNi,38.8534,29.9908,-8.8627
Sc(CrFe)2,22.2638,19.3878,-2.8759
K3Mn5Te12,38.0462,32.1248,-5.9214
K2InSb,14.6864,12.6766,-2.0097
YZr5Nb6,113.0726,91.7099,-21.3627
NaAuBr6,17.2584,17.6132,0.3548
CaYSb2,26.4628,23.6904,-2.7724
Zr2AgPb,64.5895,58.996,-5.5935
TlRe2Au,39.7803,44.8,5.0196
Rb2SbMo,13.0546,13.7288,0.6741
Th2Nb2C3,84.8662,68.7206,-16.1456
Np2Os2C3,57.9933,50.3924,-7.6008
Tb5NdTh2,36.3154,38.5642,2.2488
YTm2Pd3,20.2138,22.5444,2.3305
La2Te2Au,40.6111,35.3788,-5.2323
Zn2FeP,20.9914,18.8273,-2.1641
LaTl2AgCl6,15.7835,15.4724,-0.3111
ThSc2Ag,26.9406,27.5121,0.5714
ScAlTe2,24.3039,22.7655,-1.5384
TlTc2Ag,62.8452,55.2979,-7.5473
LaCu3Si,17.8107,14.7221,-3.0886
CeCo3Si,4.9823,7.5309,2.5486
U2Pa2C3,64.5917,57.3199,-7.2717
AcNdCuAs,25.9523,28.8827,2.9304
YHg3Ir,20.0708,18.2406,-1.8301
NbB3Os,39.1176,34.6197,-4.4979
Er(SnRh)2,35.1923,28.6883,-6.504
CuMo2Au,33.0327,28.6948,-4.3379
SnPdO4,41.1661,33.6708,-7.4952
Nd2Ga2Br,14.5867,16.7395,2.1528
NbReB,50.0874,48.5492,-1.5382
BeCdBr2,11.5959,11.2921,-0.3038
CaNbB3,30.3484,26.0519,-4.2965
NaYHgBi,32.026,29.6506,-2.3754
Ho3(ThSc4)2,20.0981,21.6175,1.5194
BeCd2Br,13.848,13.4734,-0.3746
CaScNiRh2,28.3667,18.8384,-9.5283
MgV2As,70.0519,53.6416,-16.4104
Pr3YHo2,6.095,9.0101,2.9151
Pr3Dy2Y,5.7767,8.6718,2.895
SrAlI2,14.7314,14.0748,-0.6565
HoTh2Sc5,23.6136,25.458,1.8444
CuMoAu2,41.1302,36.0642,-5.066
LiCuPb4,32.7743,34.2371,1.4628
PrYAu,2.933,7.6788,4.7458
La3YSb2,42.2286,33.8146,-8.4141
YPa2Tc3,94.1799,82.558,-11.6219
TbYNb6,111.6214,89.4593,-22.1621
Ba3AgBr,8.2281,7.2273,-1.0008
SiTe2Ir,36.1918,33.8252,-2.3666
K2HgRh,18.5885,14.3907,-4.1978
BaNa2Br,14.6222,13.0472,-1.575
BeTl2Re,36.77,38.5048,1.7348
PtPbO4,23.7033,21.4152,-2.2881
PdRhPb,39.8199,36.6262,-3.1936
Y3PPd,30.5054,24.3033,-6.2021
BeTl2Re,36.5345,38.5048,1.9703
NaSnBiPd,32.1687,29.9034,-2.2653
Tl5Au3,46.7545,47.6875,0.933
CrAuBr2,33.6679,31.2994,-2.3686
BeTl2RePb,39.6657,41.0956,1.43
AcP2IO6,21.9226,19.172,-2.7506
LiPr(BiPd2)2,21.4597,23.5842,2.1245
ThGaSn,21.321,25.8064,4.4854
Er2Ni2Ir,3.0528,9.3628,6.31
YPu2Tc3,95.9954,84.0049,-11.9905
AgSbOs2,40.7217,39.5641,-1.1576
AgSb3Os,42.2766,36.9492,-5.3274
NaPr2(H4Rh)3,8.7861,7.0141,-1.772
Co3RhBr,21.8035,17.0241,-4.7794
Rb2CaBiCl6,12.2271,10.8037,-1.4234
YTm2Pt3,49.184,40.2478,-8.9362
Ba2BeAl,11.0626,8.6497,-2.4129
Rb2BaCaCl6,2.2404,2.25,0.0095
Li4SmP2,6.0155,5.8256,-0.1899
CuMoAu3,43.1048,38.1603,-4.9446
K(Te4Au3)2,42.1455,40.1728,-1.9727
NaTa2C,41.3783,37.8955,-3.4828
Ta3CF,47.5438,42.423,-5.1209
Ce2TmGa2,14.1526,16.8112,2.6586
Hg2GeS4,34.0305,24.8414,-9.1891
TbBI,12.3068,17.0067,4.6999
K8AgHg2O,10.3343,9.0218,-1.3125
CrCd2Au,23.761,24.1159,0.3549
CrGeRu,0.0,1.3179,1.3179
ZrScMnRh,62.5516,51.7113,-10.8403
Sr2YAu2,24.3338,24.597,0.2632
Ru3Rh3W2,50.5118,42.3684,-8.1434
Ca2TbYHg4,7.6844,7.7899,0.1055
Rb2LaMoBr6,12.8335,11.8294,-1.0041
MoAsRu2,22.939,18.9773,-3.9617
TlP2Ir,31.8054,30.812,-0.9934
Np3Bi3Sb2,50.4594,50.3128,-0.1466
NbBO3,18.5175,17.3927,-1.1249
Cs2AuF4,16.9912,17.8036,0.8124
CsRb8Hg2O,3.003,2.7844,-0.2186
Al(ReBi2)2,44.1974,45.539,1.3416
Hf5NbBi2,113.3441,82.7802,-30.564
Ta2Si2Ru,16.561,17.5561,0.9951
CaAl2Zn,3.6343,4.6552,1.0209
YZr2Ir3,56.0831,54.0411,-2.0421
CrIr2Ru,33.4786,32.875,-0.6035
Sc2(CdAg)3,19.9835,18.4963,-1.4872
Hf8Bi2Os,118.2409,86.7843,-31.4565
CaAlZn,7.1514,7.3041,0.1527
Cs2Cu3Te4,26.0348,25.7225,-0.3123
Sc2(InAg)3,22.0946,18.7889,-3.3057
Sc2TaB2Rh5,51.2164,41.7087,-9.5077
Ba2AcMoO6,5.7082,7.9874,2.2792
PmY2Hg3,16.8362,15.1655,-1.6707
NiAsP,17.6224,15.5334,-2.089
Zr(SiS3)2,45.549,32.5158,-13.0333
Sr2RuBr,18.1235,17.2805,-0.8431
Tl2CoCuCl6,16.2421,15.3925,-0.8496
Tl2CoNiCl6,17.0877,15.6039,-1.4838
CaMnRu2,34.5454,32.0836,-2.4618
CrAg2Ru,22.8731,19.9547,-2.9184
Na2Si2SnPt5,49.7778,35.6134,-14.1644
NiAsP,22.956,15.5334,-7.4226
Ni2AsP,22.0223,18.5735,-3.4488
ZrAuS2,57.8013,48.4056,-9.3957
Nd3Sc2Ag3,22.0858,21.0016,-1.0841
CeHfTh,78.4232,66.3515,-12.0717
HfBiP2,45.0462,37.2688,-7.7773
Tb2Y6Tm,12.8391,15.8055,2.9664
Sc2(AgSn)3,28.4397,22.6219,-5.8178
ScTl2Sn,36.095,35.3526,-0.7424
Th3Sc2Bi3,39.7886,42.9317,3.1431
CeHfTh2,75.3441,67.5476,-7.7964
Pr2YRh3,18.6008,14.271,-4.3298
KNaIr3,36.2407,35.4699,-0.7708
Sm2Th2C3,51.7483,44.8987,-6.8496
Pr6Tm12Tl,20.7819,21.4967,0.7147
Ca(SbIr)2,36.4067,32.1586,-4.2481
Tl2CrPbCl6,21.8309,21.9948,0.1638
Sm3IrPt,45.4829,37.9019,-7.581
Al6ReBi2,18.6581,20.4523,1.7942
BaSc2C,11.8874,10.1752,-1.7122
CrCdAu2,30.7984,32.509,1.7106
RbTl2CrCl6,12.6328,13.4392,0.8064
ZnCr(InCl3)2,11.2402,11.5742,0.334
Cs3WBr,25.1562,25.4691,0.3129
Sc2(CdPb)3,27.9801,29.2427,1.2626
Sr2CoBr,13.6929,13.0292,-0.6637
Y6Zn2Au,12.3607,13.2823,0.9216
Sm3Sc2Cd3,17.6349,19.4171,1.7822
Sr2NiPt,34.7096,27.3769,-7.3328
Y2P2Ru2C,34.4626,27.5201,-6.9426
Zr2ZnS,59.5018,49.1357,-10.3661
SrZnGaPt3,44.5639,34.2647,-10.2992
LiIn8,18.1819,18.5484,0.3665
Rb3(AgGe2)2,13.7916,10.3971,-3.3945
TaAgAs2,22.2518,22.5102,0.2585
Rb2AgGe2,10.6521,7.428,-3.2241
Y3TmZn2,12.3602,12.3895,0.0293
BaNaGa2,10.2721,8.813,-1.459
Cs2ThHgCl6,8.1339,10.5893,2.4554
Te2PbW,44.892,44.5939,-0.2981
Na2Y(CuTe2)2,32.221,28.3866,-3.8343
Ta2AgAs,29.0245,30.1892,1.1648
Be3(CoRh)2,23.1119,15.8653,-7.2465
ScCdPdRh2,31.7827,24.37,-7.4126
ScSnPdRh,30.287,25.032,-5.255
Ca2CuTe,15.9791,15.1926,-0.7865
Ta2AgAs,28.8761,30.1892,1.3131
Er3Sc2Cu3,30.308,26.8581,-3.4499
AlCdAu,23.0466,24.3808,1.3341
Ce2TmSc,21.4658,24.4616,2.9957
TeAs2,20.9571,22.4176,1.4605
Cu2TeAs,16.8147,14.1096,-2.705
Be3(CuPt)2,33.4347,24.2049,-9.2298
NaCaVC2,56.9633,41.8134,-15.1499
TeAs,26.5509,25.8816,-0.6693
CuTeAs3,17.1494,16.7009,-0.4484
Sb2RuCl,22.9671,22.7017,-0.2654
TmAgSb2,32.9343,30.1405,-2.7939
CsTl(HgCl3)2,6.5925,7.0086,0.4161
GdAlAu2,31.1894,33.0938,1.9044
Cu3Te,15.7961,17.2008,1.4047
Cu2TeAs,16.6123,14.1096,-2.5026
GdAlAu,25.7954,28.3284,2.5329
EuGdAlAu,26.4778,28.7092,2.2314
CaCu2Te,16.9116,15.4393,-1.4723
LiMo2SBr,27.9499,24.2924,-3.6576
CuTe2,26.9011,26.4689,-0.4322
Sr2SiRu,20.9556,19.0297,-1.9259
CuTeAs,7.5824,10.074,2.4916
CuTe2,26.9162,26.4689,-0.4472
K2LaRh,31.2532,24.1389,-7.1143
LiTm2RhO6,8.6139,9.4979,0.884
YHfTe2I,52.7293,42.8249,-9.9044
YSiBi2B,66.1249,57.7123,-8.4125
Zr4SiAu,67.6583,57.616,-10.0423
Sc6GeTe3S2,34.402,29.1372,-5.2648
Er2TmNi2,14.5869,17.9985,3.4115
Zr2TeAs,61.9042,56.037,-5.8671
Rb2YBI6,33.4025,30.0388,-3.3637
Ba(CuP)2,7.6073,5.698,-1.9093
CeLuOsPd,28.9912,32.7464,3.7552
AcTbGa2Pt5,60.8864,47.383,-13.5034
PaNiAu,40.0643,43.4929,3.4287
Zr2TeAs2,51.0536,45.3132,-5.7405
ZrTeAs2,40.0651,36.1175,-3.9477
TaSb2As,34.2882,32.4726,-1.8156
Nb2B2Rh,61.0306,50.6077,-10.4229
ZrTeAs2,39.7912,36.1175,-3.6737
Rb12Hg3S5,7.8897,4.5854,-3.3042
CeSmAgSb,31.0068,29.9657,-1.0412
TbHfNi4,32.1158,27.376,-4.7399
Pr3(SmIr)2,22.3977,21.3062,-1.0915
Be3(NiIr)2,13.87,16.819,2.949
Zr6FeS2,77.4471,63.6998,-13.7473
TaSi2Ru,23.5272,21.2785,-2.2488
TbSc2GaPd4,19.1679,18.3168,-0.8511
CrOs2PbO8,12.8255,12.8413,0.0158
AcLa2,55.9866,47.7722,-8.2143
NaCdBr2N,14.1471,12.7055,-1.4415
Nb3NiB4,53.7391,44.3494,-9.3897
YGaBi2Te,35.3273,35.1622,-0.165
YZrB2Br,63.7715,53.3828,-10.3887
AlRuPt,36.2077,30.743,-5.4647
SrTcMo2,35.4537,33.3073,-2.1464
PmY3Er2,15.4344,18.22,2.7856
CsRbGeAuF,22.9987,23.0121,0.0134
Nd3Tm2Sc3,13.9144,15.8795,1.9651
Tb5GaAg4,26.3047,25.4609,-0.8438
Li2BeTc,24.4966,21.0611,-3.4355
FePbBr3,23.6417,22.1139,-1.5278
NaHoCuS2,28.958,22.8189,-6.1391
Pr6In3Sb,2.712,3.9953,1.2833
Ga2Sn2Pd,16.5079,14.9498,-1.5581
YTeAsI2,22.44,22.3114,-0.1286
SrTc2Mo,54.1796,47.2855,-6.8941
NaSc4USe8,34.1936,29.4773,-4.7163
SrTc2Mo,54.3088,47.2855,-7.0233
Tb2Ta2C3,43.5669,36.4908,-7.0762
K2TcSb,41.2237,34.5322,-6.6916
Nd2I2Br3,17.0413,19.0481,2.0068
Y3Sc2Pb3,19.6587,22.9273,3.2686
Ta2ReN2,62.9085,59.5463,-3.3622
PuTl2CuCl6,19.7014,19.7988,0.0975
TbSm3Os,35.073,32.6258,-2.4472
Y4GaRu2,18.9167,16.6154,-2.3013
NiBS2,24.3644,19.4328,-4.9317
Hf4Co2Sn5,62.5085,47.906,-14.6025
NpSbAuS,47.4509,44.3147,-3.1362
CrTe3,34.3605,31.5438,-2.8167
GdHoTlNi,29.7001,31.1681,1.468
YTeI2O,35.6055,32.2909,-3.3146
K3Se5I12,20.7861,18.4293,-2.3568
Tm2AgSb4,38.3214,34.2482,-4.0733
PrNd2YTl2,22.3582,24.4732,2.115
TlFe2AgCl6,8.9156,7.7614,-1.1542
CsFe2HgCl6,3.8627,2.8579,-1.0048
Pr2Nd6Y3Tl,19.7016,20.6317,0.9301
Li2CaI4,12.948,13.4988,0.5508
SbTeS2,46.3409,36.8071,-9.5338
HfCoSn2,48.038,39.1254,-8.9126
FeAg2HgCl6,10.6509,8.4746,-2.1763
Nb2BTe,74.794,62.5774,-12.2166
YTc2SnTe,81.4414,68.6438,-12.7976
Nd3Er3Sc2,21.5667,23.0766,1.5099
CoCuNi4,13.4424,12.9115,-0.5309
ZnSbI3,24.4888,23.1932,-1.2957
Ba2PmYS4,43.5735,34.2871,-9.2864
Ta3PdN,22.2214,27.817,5.5956
Co6CuNi8,36.2236,28.0731,-8.1505
SrWAu2,41.3215,36.9182,-4.4032
Tl2FePdCl6,11.5292,11.6189,0.0897
Ho2Al2C3,34.6206,27.4176,-7.203
LiEr2RhO6,8.3594,9.2917,0.9323
SrCaLa2Zn,24.3389,19.585,-4.7539
TcHgW2,35.2875,36.7486,1.4611
SnPd3Rh,27.9646,23.5072,-4.4574
BiSbSe,49.2358,44.3159,-4.9199
Sr3BW,24.8897,19.2612,-5.6285
Rb3Y3NpS8,36.3671,28.2237,-8.1434
PaIn2FeO8,15.8709,15.7303,-0.1406
Nd2Pa2Se7,45.8263,40.6235,-5.2028
LiLa2RhO6,25.0668,22.6677,-2.3991
CaPr3,0.0,0.0864,0.0864
Rb3Sm2YO6,10.5544,10.0007,-0.5537
CrRuO3,13.04,9.9835,-3.0565
RbEu(CuP)2,15.4633,13.5975,-1.8658
Tb3Pm3Sc2,22.0672,22.1059,0.0388
CoGe2Os,9.6747,14.3212,4.6465
SrGeOs,4.1554,10.1252,5.9698
YNb3Cl,117.4136,97.9367,-19.4769
CuTe2MoBr,33.5337,26.6604,-6.8733
TbZrTi2,35.9533,32.6239,-3.3294
CuNiS2,31.4664,25.9644,-5.502
CoGe2Os,9.7911,14.3212,4.5301
Tb2ZrSc4,25.0954,24.2392,-0.8562
GaPF,2.8026,2.6156,-0.1869
LiSmP,10.7242,12.8044,2.0803
SrCoGe2Os,16.6175,18.187,1.5695
MnCoIr4,47.6011,45.9561,-1.6449
Pr3Bi5Se12,27.2589,23.1231,-4.1358
Y8Ge3Te4C,25.9292,23.1508,-2.7784
CoGe2Os,16.7201,14.3212,-2.399
Pr3Sc2Hg3,0.0,0.7647,0.7647
CeRhI2,30.0697,27.5315,-2.5382
TiSbN3,10.9581,10.9144,-0.0437
Pr6Sm3Y,3.1815,4.7629,1.5814
Pr3TeO6,3.4158,1.3579,-2.0579
GaPF,12.3814,2.6156,-9.7658
KCoAg,17.5651,15.5998,-1.9652
Pr2GaHg,3.9924,4.5438,0.5513
K2TcIr,36.9336,34.603,-2.3306
GaP2,2.201,1.3489,-0.8521
HfPd,71.9125,55.787,-16.1255
SrCa,12.7295,10.8395,-1.89
CoSnTe2,28.2235,27.8354,-0.3882
YEr2Nb,54.077,49.3027,-4.7743
CoTc2Ge,50.2622,44.2061,-6.0561
SiIBr,7.135,8.8717,1.7367
Pm2RhI,30.3415,28.8836,-1.4579
NaSrAg2,23.2228,19.612,-3.6108
LiAlIn4,12.9339,13.3266,0.3927
Co2TcGe2,17.7936,18.1443,0.3506
TlIn2Pt,41.3207,37.4448,-3.8759
Al2CrCd,9.0856,9.7123,0.6267
LiCr4W,12.7613,13.642,0.8808
HfCo2Mo,35.2252,29.6555,-5.5697
Zr2SiTeS,61.9163,50.2051,-11.7112
Tb(BRu)3,3.0933,6.7142,3.6209
HfCoMo3,39.9895,34.0148,-5.9747
SrCo2AgBr,19.1717,15.9311,-3.2406
AlMo2Pb,31.9579,27.8382,-4.1197
Th2U2C3,64.2809,57.3282,-6.9528
Nd2Cr2C3,52.3956,44.041,-8.3546
Be3AlIn,16.8201,13.366,-3.454
LaYSc2Ni,45.8997,39.0633,-6.8364
Tb4SiGeTe2,25.6913,26.1098,0.4184
BeAl2In,18.2309,15.5243,-2.7065
Al2Pt,25.9232,22.6254,-3.2979
Rb4Y3PaSe8,29.7702,25.1172,-4.653
ScNbS2,66.7452,53.7318,-13.0135
BeAlIn,19.8312,16.606,-3.2252
TlIn3Pt,39.8292,35.3436,-4.4856
Co2Si2Ni,24.343,18.4892,-5.8538
Tc3SeI,72.0404,59.0962,-12.9442
BaAl2Br,10.3059,8.6097,-1.6962
TaNbO4,28.6859,24.9589,-3.7269
Ba(ScAu)2,15.772,19.258,3.4859
Zn(CrMo)2,4.4144,8.1217,3.7073
CoTeIr2,34.1662,36.7918,2.6256
TbZrS2,57.9521,47.7596,-10.1925
ReC,20.8147,18.9981,-1.8166
ZrTc3S,88.9311,71.3037,-17.6275
MnAl3Tc,43.8984,34.5441,-9.3543
LiIn,0.0,2.2719,2.2719
NbGa3B,37.703,29.8075,-7.8955
NbNi2Hg,33.907,30.1326,-3.7744
ReC,46.2093,18.9981,-27.2112
Al2MoPb,23.862,22.3554,-1.5065
KVSb2,53.0988,42.3525,-10.7463
SmMn2Sn,54.3958,46.9662,-7.4297
Ba3NaOs,13.6242,13.4951,-0.1291
NaVCr2,38.32,30.9279,-7.3921
Zn2InSi,13.4077,12.6319,-0.7758
Mo3IrRu,29.7179,25.4698,-4.2481
Ac3SmHo,37.1221,40.2309,3.1089
Zr2UFe2,43.5819,42.5605,-1.0214
Li(InOs)2,20.5584,23.9384,3.38
ZrPd3Ru,34.7203,32.1632,-2.557
Th2FeBr2,30.1089,33.3467,3.2378
Re4Se2I,42.322,40.2002,-2.1218
Hf3ZrS6,78.0198,55.5279,-22.4919
Al2Re2Tc,29.4611,29.7314,0.2703
CuP2Br,11.5555,10.1758,-1.3797
Fe(CuRh)2,37.3774,29.0023,-8.3752
ZrMoS2,48.815,39.6129,-9.2022
Pm4YEr6,26.5923,28.5568,1.9645
ZrMoS2,56.1748,39.6129,-16.562
YSc2Pd9,20.1662,19.0158,-1.1503
K2ScTa,71.8867,57.9875,-13.8992
Y2ScPd9,22.415,20.8988,-1.5162
CaY2SbN,40.6567,33.793,-6.8637
Y2ScPb9,41.9283,42.9582,1.0299
Ca3(AcPm)2,27.7863,29.2603,1.474
Tb3SmOs,27.4257,28.9218,1.496
ZnCr2Ru,5.396,7.4416,2.0456
InIBr,14.9952,15.9109,0.9157
Sr3ZrNiO6,8.1852,6.5808,-1.6045
CaMnIr,52.3087,41.7481,-10.5605
In6IBr5,16.0541,16.7495,0.6954
YAl(SiNi2)2,31.6616,28.4445,-3.2172
Mn2Ge(As2O7)2,22.1825,21.8234,-0.3591
DyCr(GaO3)2,11.6938,9.7081,-1.9857
YBeSi2Ni,47.2258,39.7399,-7.4859
ZrAgSnS4,47.7728,38.1234,-9.6494
ScAl2Pb,17.0481,18.2133,1.1653
Y7Sb,17.5353,17.9971,0.4618
Li2In2Cu,8.6837,8.3232,-0.3605
Y2NiSbP,65.9703,55.8253,-10.145
ZrSN,43.1457,35.0983,-8.0474
Na2SrSm,22.236,21.2002,-1.0358
NbAsBr3,37.4445,31.2886,-6.156
Er2Re2C3,57.3806,47.9345,-9.4461
Y2CuSi2Ni5,32.7866,29.1664,-3.6202
K2HfW,48.8608,39.2325,-9.6283
LiHfNiGe,44.0314,31.9035,-12.1279
NaCe(SbAu)2,38.3678,36.6329,-1.7349
Li2La(PrIn)2,12.922,11.5568,-1.3651
Li2CaIn2,10.7765,10.2096,-0.5669
SrC3Se,52.7675,36.876,-15.8915
La2NbI,67.2095,53.3068,-13.9027
NiRuO4,2.2984,3.2156,0.9172
Y2CuSi4Ni3,40.126,33.7382,-6.3878
Pu2ZrS4,56.3171,46.5807,-9.7364
K6H12N,3.9727,3.5788,-0.3939
PPt2Au,57.4731,46.7758,-10.6974
Er2Tm2C3,43.0142,36.77,-6.2442
Y3Sc2In3,15.7569,15.5733,-0.1836
MnNi3Au,54.4264,49.366,-5.0604
VSi2Ru,38.8088,30.6864,-8.1224
La2Fe2C3,40.5591,28.0653,-12.4939
PtS3I,57.1544,41.9541,-15.2002
Sb2Au5,43.1443,42.9294,-0.2149
LiIn2C,23.7238,19.8487,-3.8751
Ca2TaCu,16.1501,16.4133,0.2632
Ba4AlBr,8.8103,6.9827,-1.8276
Zr2BeCd,54.8853,47.9091,-6.9762
Na2CrO4,3.1565,2.5099,-0.6465
NaVO3,9.5952,7.5471,-2.048
YSi2NiAu,50.045,42.8746,-7.1703
HfSiPt,82.0849,59.1185,-22.9664
Zr5ScC4,73.2699,57.7161,-15.5538
Sc(CuMo)2,27.0984,19.6248,-7.4736
NaSc3Ta,59.9093,49.1933,-10.716
CeY2Sn,28.7313,25.0078,-3.7235
Y3Tm3Sb2Os,30.1046,29.1815,-0.9231
Cu2P2W,55.117,45.7821,-9.3349
BaTl2GeCl6,10.0922,11.486,1.3938
PmMn6,89.3818,72.3048,-17.077
GdPt,46.8902,38.4078,-8.4824
BaCu2P,10.839,9.067,-1.772
Y2NbSiP,60.9834,47.2712,-13.7122
K2RhI,24.1677,19.624,-4.5437
LiCeBr2,20.3494,20.3584,0.009
Ca3(NdSm)2,16.4032,18.0602,1.657
Al2TePd,16.5806,17.248,0.6675
ErCu2As,13.0107,15.513,2.5023
Ta5Re3,37.5731,42.9936,5.4205
YSi2Cl,42.5524,41.3993,-1.1531
TcIrRu3,31.0287,29.1323,-1.8964
RuAuBr,32.7668,30.1559,-2.6109
Cs2AuF5,15.8419,16.5794,0.7374
ZrNi2S,35.2327,30.2759,-4.9568
TlRe2O6F,20.5222,17.698,-2.8242
Tm3Sc3In2,19.3444,19.917,0.5726
PrGe4Bi,14.4395,15.8728,1.4334
LiLuP,13.8638,14.7803,0.9166
ScHg2S,21.4024,21.2666,-0.1359
SrZrS2F,40.4196,31.4395,-8.9801
TaTlI3,31.7205,31.9023,0.1819
SrZrSeS2,55.5636,42.228,-13.3356
Li3Lu,8.9247,10.0374,1.1127
Pr3Er3Sc2,10.6647,12.0138,1.349
CaTb2YHg4,10.0761,12.6071,2.5311
ScPdRhAu,33.3507,29.8372,-3.5135
Sr(ZrS2)4,64.6828,50.3386,-14.3442
Tl(PRu)2,17.9138,19.9462,2.0324
TbYEr4,26.337,29.5127,3.1757
NaCeInGe,19.4163,20.2862,0.8699
Hg2RuBr,12.0795,10.5549,-1.5247
Y2BeTcO,67.61,56.4597,-11.1503
LaFeTc2,59.996,48.9249,-11.0711
Hf(GaAu)2,50.7258,43.5516,-7.1742
TlPRu2,22.3582,24.6373,2.2792
TbCeScS3,35.8372,30.7925,-5.0447
SiNiRu3,22.7268,17.9031,-4.8237
NaLiNiRh2,26.7246,20.6599,-6.0647
KSr(PO3)2,4.6497,2.9725,-1.6772
La2(NdEr)3,33.1963,30.6939,-2.5023
KPm(PO3)2,4.9062,3.5956,-1.3105
Hf2Ga2Pt,70.9302,51.4327,-19.4975
Li3Sm,6.7594,7.8514,1.092
KAlRh2,28.2189,23.0128,-5.2061
Pu4CoSn2,47.9105,49.0226,1.1122
Y2ScIn2Rh5,25.7227,20.0843,-5.6384
KTb(PO3)2,4.9853,3.8277,-1.1576
Na2Zr2NiS6,52.7041,39.7865,-12.9177
FeCoCu,34.2667,28.2764,-5.9903
RbMnCo2,25.7732,20.8904,-4.8828
Cu2PdAu,19.5218,21.5375,2.0157
NaYHgPd,23.8398,20.4475,-3.3923
Ta2TeAu,40.9669,43.291,2.3241
NaLiHgSe,19.8774,16.3058,-3.5716
Th3TcPd,53.4838,54.9363,1.4526
TaAlHg2,10.3658,12.2187,1.8529
Ir2OsPt,54.9125,52.4224,-2.4901
CdBr,15.0745,16.3046,1.2301
Ca3(ZnHg)2,5.592,5.0668,-0.5252
Fe4CoCu,22.9533,18.9785,-3.9748
Tl3SbIr,48.4887,47.8887,-0.6
ScVNi2,36.8019,31.4431,-5.3588
AlReSi2,22.9655,26.4791,3.5136
CsMg2UO6,6.1513,5.7319,-0.4194
Na2Cd(InSn)2,21.3169,20.9247,-0.3922
CsLa(InCl3)2,12.4502,11.947,-0.5032
Sr2YPb,25.3583,24.9736,-0.3847
Sr2YTlNi2O7,20.6961,18.6493,-2.0468
GdSn4Pb,27.3332,28.6055,1.2723
Ca3(AcSm)2,27.8559,29.3502,1.4944
TaIN2,18.3738,19.2442,0.8704
TaAlI2N,21.1084,19.5302,-1.5782
Sr2Ca3Zn2,10.9109,8.967,-1.9439
Zr2FeBr,52.1108,45.1876,-6.9233
CaCoW2,26.5791,28.1867,1.6075
MnIr,10.3319,14.6815,4.3496
KZrV2S,86.7976,66.9365,-19.8611
SrNbAu2,62.4882,56.2827,-6.2055
Ca2MnIr,45.8562,36.9185,-8.9377
SrTcSe2,45.3793,37.8587,-7.5205
PmY2In9,20.4361,20.0678,-0.3683
BaSnTe3,24.8705,24.7626,-0.1079
Tb3Pm2Sc3,20.3418,20.2467,-0.0951
Ta2AlTe,29.9301,32.3238,2.3937
Sn2S2Br,29.4995,24.3813,-5.1182
Pr2Ho5Tl3,24.3836,26.5716,2.188
Cr2CuW,9.7187,12.7425,3.0238
Tb3Pr2Sc3,10.9874,12.1279,1.1405
OsRuO4,7.5537,7.8007,0.247
Zr2Sb2S,61.283,50.6138,-10.6692
Sm2(ThSc)3,33.0678,35.86,2.7922
SiSnP2S,24.585,23.4959,-1.0891
Bi(PS3)3,40.4688,33.7237,-6.7451
KAlSb4,20.8418,18.3334,-2.5084