Formula,E_hull_DFT (eV/atom),E_hull_ML (eV/atom),Delta (ML - DFT)
Cr2PbS,25.5861,22.7011,-2.885
InSbAs2,21.5599,21.152,-0.4078
Ta2P,28.883,30.2508,1.3678
CeTi2Rh,20.7309,20.4002,-0.3307
TbSc2Cu,26.6231,24.4116,-2.2115
Al3InSi,17.9622,16.0395,-1.9226
PmMgFe2,7.2052,10.1948,2.9896
BeNb3I,99.2373,83.459,-15.7784
SrTiS2Cl,32.4091,26.508,-5.9011
LaTl(AgCl3)2,17.7821,15.7735,-2.0087
CdSnSb2,32.553,28.1542,-4.3988
Ta2TiP,13.1619,19.6617,6.4998
TiCu2Sb,15.6934,14.7908,-0.9026
ScCdAg2,18.7575,17.9127,-0.8448
La3HoTh2,46.9567,41.4534,-5.5034
AlZn2Cd,8.0384,9.6411,1.6027
Cd3SnSb,25.1321,23.5433,-1.5888
Ge4IrPt2,36.7071,29.5145,-7.1926
Ho2ThSb2,36.3802,36.0469,-0.3333
Zr3WI,72.8501,60.4796,-12.3704
LaSnAu3,37.9804,37.0427,-0.9377
YIn3Au2,25.2003,25.4839,0.2836
Nd3YIn2,17.3354,19.0581,1.7228
LiYHoCd,15.3261,17.6664,2.3403
SbRuBr2,29.8675,27.6755,-2.1919
K(ScAg)2,13.2572,12.6357,-0.6215
Be2Al2Cd,20.708,16.2333,-4.4747
PuCo2Ge4Os,20.2348,22.565,2.3302
Ca2LaMo,19.9274,16.8589,-3.0685
AsAuBr2,20.256,21.3764,1.1204
CaTaBe2,21.0388,17.6159,-3.4229
Na2TaNiOs,28.3189,27.6991,-0.6199
NaLaTbIn,30.5297,26.6556,-3.8741
Ca2TaBe,20.0814,17.3856,-2.6958
CrBrCl,25.7665,23.9168,-1.8498
Gd2Sc4C,19.9243,19.3861,-0.5382
HfThSc2,55.0719,48.1067,-6.9652
HoScBeRh,22.8206,20.4338,-2.3868
NaTiS3,38.2899,28.4985,-9.7914
NpTl(AgCl3)2,19.8864,19.8168,-0.0696
CaTa2Be,27.8812,26.8839,-0.9972
CaTa2Be,27.8657,26.8839,-0.9818
Ca2LaMo,19.9384,16.8589,-3.0795
Pm3(NdIr)2,29.5902,31.8026,2.2125
Np2ScAg,35.5151,39.6898,4.1748
Sr4SI2N,19.1182,17.7331,-1.3851
TlInPt,41.47,34.4748,-6.9952
LiTe4W,35.6527,34.2143,-1.4385
RbSrTa,29.93,22.2306,-7.6994
Ti2BSbS,23.6567,19.2753,-4.3814
Ti2SiRuS,22.0678,17.3044,-4.7634
KGdBi,31.6467,32.7781,1.1314
TlC2,60.9023,47.2581,-13.6442
AlSb2Au,35.0439,31.0574,-3.9865
BaPa2ZnO8,14.7164,14.6818,-0.0346
RbSrTa,20.3792,22.2306,1.8514
Sr(CdTe)2,28.6516,26.369,-2.2826
RbBaBr,3.4826,3.6005,0.1179
Rb2BaSrBr6,7.8531,8.0706,0.2175
Rb2BaBr7,7.3545,8.1051,0.7506
AcSm3Tm2,33.8624,36.1232,2.2608
AlInTe2,22.9677,23.7897,0.822
TaMnGa2,58.7623,48.1947,-10.5677
LiTaNi2,6.7484,12.9633,6.2149
AcSm7Tm3,30.3531,31.4881,1.1349
LaSc2Pb,28.4088,26.0033,-2.4056
Nb3AgB,93.9481,76.3861,-17.562
ZnFe,9.1405,7.0158,-2.1247
LaScPb2,40.0225,37.8137,-2.2088
Al2In2Te,14.6093,15.5263,0.917
Er2Ni2Au,23.0463,25.5378,2.4915
As3RhI,22.2177,19.2412,-2.9765
OsIO2,35.3182,31.7728,-3.5454
SrU2Cl8,18.0523,18.7344,0.6821
Ca2TiS,18.0358,15.954,-2.0818
Ga3Te4,27.4774,26.7443,-0.7331
Y3Zn2Ga,13.4767,12.235,-1.2417
Na2VSi,45.3036,35.5937,-9.7099
HoTl(PO3)2,8.8512,6.7167,-2.1346
Hg2BiAu2,27.7822,29.4188,1.6367
LiVSb,58.1593,46.002,-12.1573
Nb2BSe,83.0666,69.2696,-13.797
TbY3Hg4,21.7291,17.9896,-3.7396
Li4CuW,8.4983,10.3774,1.8791
K2BaRh,18.5393,14.7858,-3.7535
LiCuW4,27.6242,31.4264,3.8022
ZrNb3B,107.2648,86.3327,-20.9321
TmSc2Pd,18.631,18.912,0.2811
AlZnCd,10.0976,11.127,1.0294
BaLaSc2,15.7554,13.1878,-2.5676
ScSb2Mo,30.7852,27.4242,-3.361
PaPbO4,18.216,21.1151,2.8991
Sr3InBi,22.8335,24.0115,1.1779
La2U2C3,60.3292,48.3149,-12.0142
Ce2Mn2C3,61.184,47.8718,-13.3121
FeAs3I,28.5096,24.2705,-4.2391
YPd2Au3,32.2314,32.6254,0.394
Sr7(HgAu)2,16.6098,17.6151,1.0053
Tl(GaAu)2,29.1692,30.9642,1.795
Tb3Ce4ScS8,40.3293,33.6568,-6.6725
ZnFe2,5.2333,5.4123,0.179
FeCoNi,38.8534,28.3599,-10.4935
Sc(CrFe)2,22.2638,18.3995,-3.8643
K3Mn5Te12,38.0462,31.9466,-6.0996
K2InSb,14.6864,12.0666,-2.6197
YZr5Nb6,113.0726,91.1358,-21.9368
NaAuBr6,17.2584,17.376,0.1176
CaYSb2,26.4628,21.8467,-4.6162
Zr2AgPb,64.5895,56.6127,-7.9768
TlRe2Au,39.7803,44.6001,4.8197
Rb2SbMo,13.0546,12.7745,-0.2802
Th2Nb2C3,84.8662,70.3414,-14.5248
Np2Os2C3,57.9933,51.2001,-6.7932
Tb5NdTh2,36.3154,39.1349,2.8195
YTm2Pd3,20.2138,22.4422,2.2284
La2Te2Au,40.6111,33.9059,-6.7053
Zn2FeP,20.9914,18.8418,-2.1496
LaTl2AgCl6,15.7835,15.1842,-0.5993
ThSc2Ag,26.9406,27.4526,0.5119
ScAlTe2,24.3039,22.8817,-1.4221
TlTc2Ag,62.8452,57.4573,-5.3879
LaCu3Si,17.8107,13.9951,-3.8155
CeCo3Si,4.9823,8.0899,3.1075
U2Pa2C3,64.5917,58.5147,-6.077
AcNdCuAs,25.9523,29.1565,3.2042
YHg3Ir,20.0708,17.8929,-2.1779
NbB3Os,39.1176,35.6122,-3.5053
Er(SnRh)2,35.1923,28.3888,-6.8034
CuMo2Au,33.0327,29.4945,-3.5381
SnPdO4,41.1661,33.9804,-7.1857
Nd2Ga2Br,14.5867,16.6771,2.0904
NbReB,50.0874,49.617,-0.4705
BeCdBr2,11.5959,11.3317,-0.2642
CaNbB3,30.3484,26.9787,-3.3697
NaYHgBi,32.026,29.081,-2.945
Ho3(ThSc4)2,20.0981,21.668,1.5699
BeCd2Br,13.848,13.5331,-0.3149
CaScNiRh2,28.3667,18.6023,-9.7644
MgV2As,70.0519,54.1052,-15.9467
Pr3YHo2,6.095,9.5589,3.4639
Pr3Dy2Y,5.7767,9.2939,3.5172
SrAlI2,14.7314,14.2613,-0.4701
HoTh2Sc5,23.6136,25.6776,2.064
CuMoAu2,41.1302,37.0392,-4.091
LiCuPb4,32.7743,34.4319,1.6576
PrYAu,2.933,7.8216,4.8886
La3YSb2,42.2286,30.7151,-11.5135
YPa2Tc3,94.1799,85.0194,-9.1605
TbYNb6,111.6214,91.7855,-19.8359
Ba3AgBr,8.2281,6.8912,-1.3369
SiTe2Ir,36.1918,33.8078,-2.3839
K2HgRh,18.5885,14.4702,-4.1183
BaNa2Br,14.6222,12.8187,-1.8035
BeTl2Re,36.77,38.518,1.7481
PtPbO4,23.7033,21.0466,-2.6567
PdRhPb,39.8199,36.6587,-3.1612
Y3PPd,30.5054,23.6449,-6.8605
BeTl2Re,36.5345,38.518,1.9836
NaSnBiPd,32.1687,29.7041,-2.4646
Tl5Au3,46.7545,47.9207,1.1662
CrAuBr2,33.6679,32.9142,-0.7537
BeTl2RePb,39.6657,40.8822,1.2166
AcP2IO6,21.9226,19.2857,-2.637
LiPr(BiPd2)2,21.4597,23.504,2.0442
ThGaSn,21.321,25.8709,4.5499
Er2Ni2Ir,3.0528,9.4004,6.3477
YPu2Tc3,95.9954,87.0127,-8.9827
AgSbOs2,40.7217,38.8995,-1.8223
AgSb3Os,42.2766,35.037,-7.2396
NaPr2(H4Rh)3,8.7861,6.7301,-2.056
Co3RhBr,21.8035,17.0963,-4.7072
Rb2CaBiCl6,12.2271,11.1864,-1.0407
YTm2Pt3,49.184,37.8959,-11.2881
Ba2BeAl,11.0626,8.9716,-2.091
Rb2BaCaCl6,2.2404,2.1381,-0.1024
Li4SmP2,6.0155,4.4472,-1.5684
CuMoAu3,43.1048,38.8889,-4.216
K(Te4Au3)2,42.1455,40.2094,-1.9361
NaTa2C,41.3783,38.3475,-3.0308
Ta3CF,47.5438,41.6985,-5.8454
Ce2TmGa2,14.1526,17.6787,3.5261
Hg2GeS4,34.0305,24.6963,-9.3341
TbBI,12.3068,17.2179,4.9111
K8AgHg2O,10.3343,9.2453,-1.089
CrCd2Au,23.761,24.167,0.406
CrGeRu,0.0,0.841,0.841
ZrScMnRh,62.5516,50.6985,-11.8531
Sr2YAu2,24.3338,24.5595,0.2257
Ru3Rh3W2,50.5118,42.0164,-8.4954
Ca2TbYHg4,7.6844,7.8636,0.1791
Rb2LaMoBr6,12.8335,11.3984,-1.4351
MoAsRu2,22.939,19.6419,-3.2972
TlP2Ir,31.8054,31.3147,-0.4907
Np3Bi3Sb2,50.4594,50.1362,-0.3231
NbBO3,18.5175,18.2106,-0.3069
Cs2AuF4,16.9912,17.3146,0.3234
CsRb8Hg2O,3.003,2.6697,-0.3333
Al(ReBi2)2,44.1974,45.6052,1.4078
Hf5NbBi2,113.3441,84.1086,-29.2356
Ta2Si2Ru,16.561,16.9868,0.4258
CaAl2Zn,3.6343,4.2751,0.6408
YZr2Ir3,56.0831,52.3215,-3.7616
CrIr2Ru,33.4786,33.5744,0.0958
Sc2(CdAg)3,19.9835,18.6157,-1.3679
Hf8Bi2Os,118.2409,88.1165,-30.1243
CaAlZn,7.1514,7.2253,0.0739
Cs2Cu3Te4,26.0348,25.8167,-0.2181
Sc2(InAg)3,22.0946,18.8396,-3.255
Sc2TaB2Rh5,51.2164,42.6506,-8.5658
Ba2AcMoO6,5.7082,8.5248,2.8166
PmY2Hg3,16.8362,15.0777,-1.7585
NiAsP,17.6224,15.0771,-2.5452
Zr(SiS3)2,45.549,31.3503,-14.1987
Sr2RuBr,18.1235,17.162,-0.9615
Tl2CoCuCl6,16.2421,15.4968,-0.7453
Tl2CoNiCl6,17.0877,15.0989,-1.9888
CaMnRu2,34.5454,32.5401,-2.0053
CrAg2Ru,22.8731,20.2196,-2.6534
Na2Si2SnPt5,49.7778,32.7606,-17.0172
NiAsP,22.956,15.0771,-7.8789
Ni2AsP,22.0223,18.753,-3.2693
ZrAuS2,57.8013,46.7994,-11.0019
Nd3Sc2Ag3,22.0858,21.295,-0.7908
CeHfTh,78.4232,67.2671,-11.1561
HfBiP2,45.0462,37.7016,-7.3446
Tb2Y6Tm,12.8391,15.8762,3.0371
Sc2(AgSn)3,28.4397,23.0894,-5.3503
ScTl2Sn,36.095,35.6191,-0.476
Th3Sc2Bi3,39.7886,43.0584,3.2698
CeHfTh2,75.3441,68.6849,-6.6592
Pr2YRh3,18.6008,14.3854,-4.2154
KNaIr3,36.2407,35.4416,-0.7991
Sm2Th2C3,51.7483,45.7376,-6.0107
Pr6Tm12Tl,20.7819,21.51,0.7281
Ca(SbIr)2,36.4067,31.097,-5.3098
Tl2CrPbCl6,21.8309,22.2528,0.4219
Sm3IrPt,45.4829,35.9613,-9.5216
Al6ReBi2,18.6581,20.4551,1.797
BaSc2C,11.8874,10.6801,-1.2073
CrCdAu2,30.7984,32.5003,1.7019
RbTl2CrCl6,12.6328,13.6842,1.0514
ZnCr(InCl3)2,11.2402,11.7076,0.4673
Cs3WBr,25.1562,25.4664,0.3103
Sc2(CdPb)3,27.9801,29.1723,1.1922
Sr2CoBr,13.6929,13.0959,-0.597
Y6Zn2Au,12.3607,13.2059,0.8453
Sm3Sc2Cd3,17.6349,19.3949,1.76
Sr2NiPt,34.7096,25.586,-9.1237
Y2P2Ru2C,34.4626,27.146,-7.3166
Zr2ZnS,59.5018,46.6863,-12.8155
SrZnGaPt3,44.5639,31.882,-12.6819
LiIn8,18.1819,18.5931,0.4112
Rb3(AgGe2)2,13.7916,10.5328,-3.2588
TaAgAs2,22.2518,22.6032,0.3514
Rb2AgGe2,10.6521,7.5622,-3.0899
Y3TmZn2,12.3602,12.2483,-0.1119
BaNaGa2,10.2721,8.7187,-1.5534
Cs2ThHgCl6,8.1339,11.2434,3.1096
Te2PbW,44.892,44.7477,-0.1443
Na2Y(CuTe2)2,32.221,28.727,-3.494
Ta2AgAs,29.0245,30.2808,1.2563
Be3(CoRh)2,23.1119,15.555,-7.5569
ScCdPdRh2,31.7827,23.9496,-7.8331
ScSnPdRh,30.287,25.5073,-4.7798
Ca2CuTe,15.9791,15.1589,-0.8203
Ta2AgAs,28.8761,30.2808,1.4046
Er3Sc2Cu3,30.308,27.048,-3.26
AlCdAu,23.0466,24.4861,1.4394
Ce2TmSc,21.4658,24.7682,3.3023
TeAs2,20.9571,22.2425,1.2855
Cu2TeAs,16.8147,13.9981,-2.8166
Be3(CuPt)2,33.4347,22.7612,-10.6734
NaCaVC2,56.9633,42.3191,-14.6441
TeAs,26.5509,25.9332,-0.6177
CuTeAs3,17.1494,16.5999,-0.5495
Sb2RuCl,22.9671,21.1238,-1.8433
TmAgSb2,32.9343,28.7448,-4.1895
CsTl(HgCl3)2,6.5925,7.215,0.6225
GdAlAu2,31.1894,33.0198,1.8304
Cu3Te,15.7961,17.242,1.4459
Cu2TeAs,16.6123,13.9981,-2.6142
GdAlAu,25.7954,28.2682,2.4727
EuGdAlAu,26.4778,28.955,2.4772
CaCu2Te,16.9116,15.3549,-1.5567
LiMo2SBr,27.9499,23.9743,-3.9756
CuTe2,26.9011,26.3932,-0.5079
Sr2SiRu,20.9556,19.1559,-1.7996
CuTeAs,7.5824,9.8815,2.2991
CuTe2,26.9162,26.3932,-0.523
K2LaRh,31.2532,23.3302,-7.923
LiTm2RhO6,8.6139,9.7112,1.0973
YHfTe2I,52.7293,43.2452,-9.4841
YSiBi2B,66.1249,57.1958,-8.9291
Zr4SiAu,67.6583,53.905,-13.7532
Sc6GeTe3S2,34.402,29.8142,-4.5878
Er2TmNi2,14.5869,18.8234,4.2365
Zr2TeAs,61.9042,53.6669,-8.2373
Rb2YBI6,33.4025,29.9648,-3.4377
Ba(CuP)2,7.6073,6.3407,-1.2666
CeLuOsPd,28.9912,33.0111,4.02
AcTbGa2Pt5,60.8864,44.9965,-15.8899
PaNiAu,40.0643,43.849,3.7848
Zr2TeAs2,51.0536,42.9974,-8.0562
ZrTeAs2,40.0651,34.6828,-5.3823
TaSb2As,34.2882,30.9591,-3.3291
Nb2B2Rh,61.0306,52.0067,-9.024
ZrTeAs2,39.7912,34.6828,-5.1083
Rb12Hg3S5,7.8897,4.6936,-3.196
CeSmAgSb,31.0068,29.2574,-1.7495
TbHfNi4,32.1158,28.0773,-4.0385
Pr3(SmIr)2,22.3977,20.7934,-1.6043
Be3(NiIr)2,13.87,16.5672,2.6972
Zr6FeS2,77.4471,59.8097,-17.6374
TaSi2Ru,23.5272,20.9186,-2.6087
TbSc2GaPd4,19.1679,18.2247,-0.9433
CrOs2PbO8,12.8255,12.8128,-0.0127
AcLa2,55.9866,45.5485,-10.4381
NaCdBr2N,14.1471,13.4612,-0.6859
Nb3NiB4,53.7391,45.7029,-8.0362
YGaBi2Te,35.3273,35.1749,-0.1524
YZrB2Br,63.7715,51.6655,-12.106
AlRuPt,36.2077,29.9872,-6.2205
SrTcMo2,35.4537,33.867,-1.5867
PmY3Er2,15.4344,18.5629,3.1285
CsRbGeAuF,22.9987,23.5279,0.5292
Nd3Tm2Sc3,13.9144,16.1432,2.2288
Tb5GaAg4,26.3047,25.7609,-0.5438
Li2BeTc,24.4966,21.9153,-2.5813
FePbBr3,23.6417,21.0822,-2.5596
NaHoCuS2,28.958,24.1728,-4.7852
Pr6In3Sb,2.712,3.9392,1.2272
Ga2Sn2Pd,16.5079,15.1455,-1.3624
YTeAsI2,22.44,22.3104,-0.1296
SrTc2Mo,54.1796,48.9067,-5.2729
NaSc4USe8,34.1936,29.4696,-4.724
SrTc2Mo,54.3088,48.9067,-5.4021
Tb2Ta2C3,43.5669,37.1816,-6.3853
K2TcSb,41.2237,34.8627,-6.3611
Nd2I2Br3,17.0413,19.1772,2.1359
Y3Sc2Pb3,19.6587,22.8936,3.235
Ta2ReN2,62.9085,62.1028,-0.8057
PuTl2CuCl6,19.7014,21.0417,1.3403
TbSm3Os,35.073,31.6894,-3.3836
Y4GaRu2,18.9167,16.4532,-2.4636
NiBS2,24.3644,18.7839,-5.5805
Hf4Co2Sn5,62.5085,48.4172,-14.0913
NpSbAuS,47.4509,43.49,-3.9609
CrTe3,34.3605,31.5339,-2.8265
GdHoTlNi,29.7001,31.3637,1.6636
YTeI2O,35.6055,32.2525,-3.353
K3Se5I12,20.7861,18.6825,-2.1036
Tm2AgSb4,38.3214,32.5399,-5.7815
PrNd2YTl2,22.3582,24.9331,2.5749
TlFe2AgCl6,8.9156,8.0786,-0.837
CsFe2HgCl6,3.8627,3.7422,-0.1205
Pr2Nd6Y3Tl,19.7016,20.9358,1.2342
Li2CaI4,12.948,13.6057,0.6578
SbTeS2,46.3409,35.7254,-10.6154
HfCoSn2,48.038,39.6353,-8.4027
FeAg2HgCl6,10.6509,8.5595,-2.0914
Nb2BTe,74.794,64.6389,-10.1551
YTc2SnTe,81.4414,70.4612,-10.9801
Nd3Er3Sc2,21.5667,23.3116,1.745
CoCuNi4,13.4424,12.1281,-1.3143
ZnSbI3,24.4888,22.3308,-2.1581
Ba2PmYS4,43.5735,34.1113,-9.4622
Ta3PdN,22.2214,26.7929,4.5716
Co6CuNi8,36.2236,26.0197,-10.2038
SrWAu2,41.3215,36.2996,-5.0219
Tl2FePdCl6,11.5292,11.9739,0.4447
Ho2Al2C3,34.6206,27.9115,-6.7091
LiEr2RhO6,8.3594,9.4124,1.053
SrCaLa2Zn,24.3389,17.9303,-6.4086
TcHgW2,35.2875,37.8485,2.561
SnPd3Rh,27.9646,23.5729,-4.3917
BiSbSe,49.2358,43.2996,-5.9362
Sr3BW,24.8897,18.9926,-5.8971
Rb3Y3NpS8,36.3671,28.5521,-7.815
PaIn2FeO8,15.8709,15.5078,-0.3631
Nd2Pa2Se7,45.8263,41.0107,-4.8155
LiLa2RhO6,25.0668,22.7525,-2.3143
CaPr3,0.0,0.367,0.367
Rb3Sm2YO6,10.5544,10.586,0.0316
CrRuO3,13.04,10.138,-2.902
RbEu(CuP)2,15.4633,13.6109,-1.8524
Tb3Pm3Sc2,22.0672,22.6691,0.6019
CoGe2Os,9.6747,14.1474,4.4727
SrGeOs,4.1554,9.6631,5.5077
YNb3Cl,117.4136,100.209,-17.2046
CuTe2MoBr,33.5337,27.2423,-6.2914
TbZrTi2,35.9533,31.5055,-4.4477
CuNiS2,31.4664,25.9028,-5.5636
CoGe2Os,9.7911,14.1474,4.3563
Tb2ZrSc4,25.0954,23.5462,-1.5492
GaPF,2.8026,1.0906,-1.7119
LiSmP,10.7242,10.3375,-0.3866
SrCoGe2Os,16.6175,18.1288,1.5113
MnCoIr4,47.6011,46.7515,-0.8496
Pr3Bi5Se12,27.2589,22.9762,-4.2828
Y8Ge3Te4C,25.9292,22.8831,-3.0461
CoGe2Os,16.7201,14.1474,-2.5727
Pr3Sc2Hg3,0.0,0.7931,0.7931
CeRhI2,30.0697,27.7874,-2.2823
TiSbN3,10.9581,9.8756,-1.0825
Pr6Sm3Y,3.1815,4.9433,1.7619
Pr3TeO6,3.4158,0.6927,-2.7231
GaPF,12.3814,1.0906,-11.2908
KCoAg,17.5651,15.9635,-1.6016
Pr2GaHg,3.9924,4.1921,0.1996
K2TcIr,36.9336,36.013,-0.9206
GaP2,2.201,1.095,-1.106
HfPd,71.9125,56.219,-15.6935
SrCa,12.7295,10.7942,-1.9353
CoSnTe2,28.2235,27.943,-0.2805
YEr2Nb,54.077,50.3922,-3.6848
CoTc2Ge,50.2622,45.9731,-4.2891
SiIBr,7.135,8.8252,1.6903
Pm2RhI,30.3415,29.0711,-1.2705
NaSrAg2,23.2228,19.8774,-3.3454
LiAlIn4,12.9339,13.5443,0.6103
Co2TcGe2,17.7936,18.8755,1.0819
TlIn2Pt,41.3207,36.7744,-4.5463
Al2CrCd,9.0856,9.6975,0.6119
LiCr4W,12.7613,13.9397,1.1784
HfCo2Mo,35.2252,29.6467,-5.5785
Zr2SiTeS,61.9163,47.771,-14.1453
Tb(BRu)3,3.0933,6.3942,3.3009
HfCoMo3,39.9895,33.999,-5.9905
SrCo2AgBr,19.1717,16.0116,-3.1601
AlMo2Pb,31.9579,28.8695,-3.0884
Th2U2C3,64.2809,58.0217,-6.2592
Nd2Cr2C3,52.3956,43.5327,-8.8629
Be3AlIn,16.8201,13.3747,-3.4454
LaYSc2Ni,45.8997,37.6748,-8.2249
Tb4SiGeTe2,25.6913,25.8782,0.1869
BeAl2In,18.2309,15.5869,-2.644
Al2Pt,25.9232,21.4779,-4.4453
Rb4Y3PaSe8,29.7702,25.2898,-4.4804
ScNbS2,66.7452,56.4807,-10.2645
BeAlIn,19.8312,16.6911,-3.1401
TlIn3Pt,39.8292,34.4732,-5.3559
Co2Si2Ni,24.343,17.3996,-6.9434
Tc3SeI,72.0404,60.9487,-11.0918
BaAl2Br,10.3059,8.2129,-2.093
TaNbO4,28.6859,25.6208,-3.0651
Ba(ScAu)2,15.772,18.4706,2.6985
Zn(CrMo)2,4.4144,7.2066,2.7922
CoTeIr2,34.1662,37.1023,2.9361
TbZrS2,57.9521,46.3977,-11.5543
ReC,20.8147,18.5453,-2.2694
ZrTc3S,88.9311,71.9965,-16.9346
MnAl3Tc,43.8984,35.1995,-8.6989
LiIn,0.0,1.4879,1.4879
NbGa3B,37.703,30.4015,-7.3015
NbNi2Hg,33.907,30.5864,-3.3205
ReC,46.2093,18.5453,-27.664
Al2MoPb,23.862,22.7666,-1.0953
KVSb2,53.0988,41.658,-11.4409
SmMn2Sn,54.3958,47.3678,-7.028
Ba3NaOs,13.6242,13.5111,-0.1132
NaVCr2,38.32,31.7819,-6.5381
Zn2InSi,13.4077,13.2784,-0.1293
Mo3IrRu,29.7179,25.1578,-4.5601
Ac3SmHo,37.1221,42.6255,5.5035
Zr2UFe2,43.5819,41.0339,-2.5479
Li(InOs)2,20.5584,24.0064,3.448
ZrPd3Ru,34.7203,31.3432,-3.3771
Th2FeBr2,30.1089,33.6096,3.5007
Re4Se2I,42.322,39.8293,-2.4927
Hf3ZrS6,78.0198,55.1878,-22.832
Al2Re2Tc,29.4611,29.9061,0.445
CuP2Br,11.5555,10.8544,-0.7011
Fe(CuRh)2,37.3774,28.8886,-8.4888
ZrMoS2,48.815,38.4944,-10.3206
Pm4YEr6,26.5923,28.9633,2.371
ZrMoS2,56.1748,38.4944,-17.6804
YSc2Pd9,20.1662,19.0208,-1.1454
K2ScTa,71.8867,59.5459,-12.3408
Y2ScPd9,22.415,20.9205,-1.4945
CaY2SbN,40.6567,31.6047,-9.052
Y2ScPb9,41.9283,43.1074,1.1791
Ca3(AcPm)2,27.7863,29.8766,2.0903
Tb3SmOs,27.4257,29.2093,1.7836
ZnCr2Ru,5.396,7.5837,2.1876
InIBr,14.9952,15.8712,0.876
Sr3ZrNiO6,8.1852,6.3443,-1.841
CaMnIr,52.3087,42.2,-10.1087
In6IBr5,16.0541,16.9124,0.8583
YAl(SiNi2)2,31.6616,27.8655,-3.7961
Mn2Ge(As2O7)2,22.1825,21.9573,-0.2252
DyCr(GaO3)2,11.6938,10.298,-1.3958
YBeSi2Ni,47.2258,39.1171,-8.1087
ZrAgSnS4,47.7728,37.0927,-10.6801
ScAl2Pb,17.0481,18.3285,1.2804
Y7Sb,17.5353,17.4131,-0.1221
Li2In2Cu,8.6837,8.0864,-0.5973
Y2NiSbP,65.9703,53.9332,-12.0371
ZrSN,43.1457,34.723,-8.4227
Na2SrSm,22.236,21.0439,-1.1921
NbAsBr3,37.4445,31.9744,-5.4701
Er2Re2C3,57.3806,48.035,-9.3456
Y2CuSi2Ni5,32.7866,28.6477,-4.1389
K2HfW,48.8608,40.5373,-8.3235
LiHfNiGe,44.0314,32.4092,-11.6222
NaCe(SbAu)2,38.3678,35.4424,-2.9253
Li2La(PrIn)2,12.922,10.9677,-1.9543
Li2CaIn2,10.7765,10.1037,-0.6728
SrC3Se,52.7675,37.728,-15.0395
La2NbI,67.2095,52.0545,-15.155
NiRuO4,2.2984,3.6954,1.397
Y2CuSi4Ni3,40.126,33.0446,-7.0814
Pu2ZrS4,56.3171,46.5721,-9.745
K6H12N,3.9727,3.5415,-0.4312
PPt2Au,57.4731,44.9268,-12.5463
Er2Tm2C3,43.0142,37.4209,-5.5933
Y3Sc2In3,15.7569,15.457,-0.2999
MnNi3Au,54.4264,49.313,-5.1134
VSi2Ru,38.8088,30.1765,-8.6323
La2Fe2C3,40.5591,27.4736,-13.0855
PtS3I,57.1544,40.8933,-16.261
Sb2Au5,43.1443,42.3472,-0.7971
LiIn2C,23.7238,20.477,-3.2468
Ca2TaCu,16.1501,16.6257,0.4756
Ba4AlBr,8.8103,7.1183,-1.692
Zr2BeCd,54.8853,45.3651,-9.5202
Na2CrO4,3.1565,2.6064,-0.5501
NaVO3,9.5952,7.7853,-1.8099
YSi2NiAu,50.045,41.84,-8.205
HfSiPt,82.0849,58.5808,-23.5041
Zr5ScC4,73.2699,55.7646,-17.5053
Sc(CuMo)2,27.0984,20.2993,-6.7991
NaSc3Ta,59.9093,50.5714,-9.3379
CeY2Sn,28.7313,25.1646,-3.5667
Y3Tm3Sb2Os,30.1046,28.4715,-1.6331
Cu2P2W,55.117,44.6642,-10.4528
BaTl2GeCl6,10.0922,11.7937,1.7015
PmMn6,89.3818,73.4819,-15.8999
GdPt,46.8902,36.5511,-10.3391
BaCu2P,10.839,9.6065,-1.2325
Y2NbSiP,60.9834,47.7412,-13.2423
K2RhI,24.1677,19.9584,-4.2093
LiCeBr2,20.3494,19.683,-0.6664
Ca3(NdSm)2,16.4032,18.2968,1.8936
Al2TePd,16.5806,17.3897,0.8091
ErCu2As,13.0107,15.554,2.5433
Ta5Re3,37.5731,42.8853,5.3122
YSi2Cl,42.5524,42.3029,-0.2495
TcIrRu3,31.0287,30.0906,-0.9381
RuAuBr,32.7668,30.529,-2.2378
Cs2AuF5,15.8419,15.8908,0.0488
ZrNi2S,35.2327,28.9987,-6.234
TlRe2O6F,20.5222,18.392,-2.1301
Tm3Sc3In2,19.3444,19.7488,0.4044
PrGe4Bi,14.4395,16.1224,1.6829
LiLuP,13.8638,13.455,-0.4088
ScHg2S,21.4024,21.7859,0.3835
SrZrS2F,40.4196,30.9345,-9.4851
TaTlI3,31.7205,31.9475,0.227
SrZrSeS2,55.5636,42.1235,-13.4401
Li3Lu,8.9247,10.2204,1.2957
Pr3Er3Sc2,10.6647,12.2458,1.5811
CaTb2YHg4,10.0761,12.5245,2.4484
ScPdRhAu,33.3507,29.7043,-3.6463
Sr(ZrS2)4,64.6828,48.3649,-16.3179
Tl(PRu)2,17.9138,19.7029,1.7891
TbYEr4,26.337,29.7656,3.4286
NaCeInGe,19.4163,20.2763,0.8601
Hg2RuBr,12.0795,10.7797,-1.2999
Y2BeTcO,67.61,57.5244,-10.0857
LaFeTc2,59.996,49.4453,-10.5508
Hf(GaAu)2,50.7258,44.1085,-6.6173
TlPRu2,22.3582,24.6022,2.244
TbCeScS3,35.8372,31.3757,-4.4615
SiNiRu3,22.7268,18.1807,-4.546
NaLiNiRh2,26.7246,20.1325,-6.592
KSr(PO3)2,4.6497,3.1527,-1.497
La2(NdEr)3,33.1963,29.983,-3.2132
KPm(PO3)2,4.9062,3.8018,-1.1044
Hf2Ga2Pt,70.9302,50.9479,-19.9822
Li3Sm,6.7594,8.1382,1.3788
KAlRh2,28.2189,23.3991,-4.8198
Pu4CoSn2,47.9105,49.9789,2.0684
Y2ScIn2Rh5,25.7227,20.0209,-5.7018
KTb(PO3)2,4.9853,4.0222,-0.9631
Na2Zr2NiS6,52.7041,38.9703,-13.7339
FeCoCu,34.2667,28.0309,-6.2358
RbMnCo2,25.7732,20.6821,-5.0911
Cu2PdAu,19.5218,21.5889,2.0672
NaYHgPd,23.8398,19.882,-3.9578
Ta2TeAu,40.9669,43.707,2.7401
NaLiHgSe,19.8774,16.6276,-3.2498
Th3TcPd,53.4838,55.9742,2.4904
TaAlHg2,10.3658,12.2861,1.9204
Ir2OsPt,54.9125,51.696,-3.2165
CdBr,15.0745,16.4741,1.3996
Ca3(ZnHg)2,5.592,4.9777,-0.6143
Fe4CoCu,22.9533,18.4907,-4.4626
Tl3SbIr,48.4887,47.2977,-1.191
ScVNi2,36.8019,31.8899,-4.912
AlReSi2,22.9655,26.2739,3.3084
CsMg2UO6,6.1513,5.7636,-0.3877
Na2Cd(InSn)2,21.3169,20.6989,-0.6179
CsLa(InCl3)2,12.4502,11.8023,-0.6479
Sr2YPb,25.3583,24.7123,-0.6461
Sr2YTlNi2O7,20.6961,18.1557,-2.5404
GdSn4Pb,27.3332,28.6079,1.2747
Ca3(AcSm)2,27.8559,29.7686,1.9127
TaIN2,18.3738,19.0014,0.6276
TaAlI2N,21.1084,19.4154,-1.6931
Sr2Ca3Zn2,10.9109,8.9289,-1.982
Zr2FeBr,52.1108,42.142,-9.9688
CaCoW2,26.5791,27.7772,1.1981
MnIr,10.3319,14.8875,4.5556
KZrV2S,86.7976,66.592,-20.2056
SrNbAu2,62.4882,57.2629,-5.2253
Ca2MnIr,45.8562,37.5496,-8.3066
SrTcSe2,45.3793,39.0583,-6.321
PmY2In9,20.4361,20.1799,-0.2561
BaSnTe3,24.8705,24.6762,-0.1943
Tb3Pm2Sc3,20.3418,20.6155,0.2737
Ta2AlTe,29.9301,32.7259,2.7957
Sn2S2Br,29.4995,24.0692,-5.4304
Pr2Ho5Tl3,24.3836,26.8586,2.475
Cr2CuW,9.7187,13.0319,3.3132
Tb3Pr2Sc3,10.9874,12.4273,1.4399
OsRuO4,7.5537,8.2984,0.7447
Zr2Sb2S,61.283,47.0439,-14.239
Sm2(ThSc)3,33.0678,35.9924,2.9246
SiSnP2S,24.585,23.6998,-0.8852
Bi(PS3)3,40.4688,33.5269,-6.9419
KAlSb4,20.8418,16.6001,-4.2417