Formula,E_hull_DFT (eV/atom),E_hull_ML (eV/atom),Delta (ML - DFT)
PrScSn3,13.2359,12.5129,-0.723
CrTePb,35.0514,34.2877,-0.7637
CsNaBeMo2,22.8363,18.0906,-4.7456
CsInCo2NiGe3(O5F)2,15.9891,14.2314,-1.7576
Hf2ScF,68.0534,49.5497,-18.5036
Na4EuPb,29.854,27.3429,-2.5111
YHg2P,17.8941,13.7133,-4.1808
CoTe2I,24.9011,26.173,1.2719
Tl2CdAu,42.0664,42.9055,0.8391
SrTl(AsO3)2,3.7143,4.0948,0.3805
AlPtBr2,30.2935,24.2461,-6.0474
ThInBi,41.8304,46.5453,4.7149
Pm2TmNi2,12.868,15.9571,3.0891
Y3C4,56.3662,43.0473,-13.3189
BaSc,2.9896,5.4245,2.4349
Ac(Tc2C)2,79.6113,64.1119,-15.4995
BaSc4Si,17.6465,16.3066,-1.3399
Sc3Pa,20.8079,23.4004,2.5925
RbScTc3,89.1166,71.89,-17.2266
CsV2Cr(AgO4)2,25.6116,20.2472,-5.3644
BaScSi2,25.8765,21.4225,-4.454
MoW2Cl,27.7393,28.7577,1.0184
SbRu3,15.7549,18.4728,2.718
Cs2Ba4Ag,11.4862,11.1439,-0.3423
TlSiCl2,18.5015,17.1447,-1.3568
HfCo3Se,42.4378,33.079,-9.3588
Na2(NbSe2)3,62.5807,49.4555,-13.1253
Th6P3SeS2,46.2854,47.2379,0.9525
Tb2Sm(ScS2)3,43.8582,37.4807,-6.3774
CuSi2,8.9799,7.7523,-1.2275
YHo7Er3,27.5515,29.2762,1.7247
Y3Ga5Te12,16.4386,15.9629,-0.4757
YCu2Te2(AsO2)2,19.0008,17.2494,-1.7514
TaCuPt,45.5346,39.5687,-5.9659
CoP2Rh,25.5484,20.9874,-4.561
TlSiCl2,18.2664,17.1447,-1.1217
PrLu3,24.0116,26.0678,2.0562
Sm6Dy3YHo2,25.2369,26.6116,1.3747
MnAgBr2,38.8319,32.4536,-6.3783
Ta4H3Se8,34.7642,31.0531,-3.7111
CsRb2PrV2O8,21.1943,15.8135,-5.3808
YPdI2,23.7298,22.4136,-1.3163
TcP2Au,37.2676,34.7288,-2.5388
Ni2SbRu,23.2406,20.7073,-2.5333
Ba(SbRu)2,18.8504,19.4067,0.5562
SrGa3Bi,19.4393,20.2968,0.8575
TlIrPb,49.8514,51.9891,2.1377
ZrFeSb2,50.7986,43.6208,-7.1778
KSr2Ga,11.7623,12.6116,0.8493
SrNb2Ga,71.3978,58.5313,-12.8666
Tl2IrPb,49.6575,51.367,1.7095
SrTiCo2,19.365,18.3082,-1.0567
TlTeIrPb2,48.2979,48.88,0.5821
SrTbGa4,11.8496,13.5346,1.685
Tb2Sc2Se2S3,43.6264,37.5603,-6.0661
ScPd3,17.9849,18.0187,0.0338
SrGa3Tc,22.3773,23.9786,1.6013
Pd3IO,29.566,26.5171,-3.049
PrLu2Ru,33.1618,34.6806,1.5188
SrGaGe,10.4441,11.9457,1.5016
SrGaSe,19.9168,18.1482,-1.7685
La2Y3Cd4,20.5885,19.2284,-1.3601
TiSiO4,1.0935,2.6158,1.5224
SrNi2P,15.9844,15.8526,-0.1318
CsKLaNbO5,23.0062,20.5117,-2.4945
TiAlO,0.0,0.9524,0.9524
SrNd2Pd,19.8651,22.6472,2.7821
Pr2SbC,17.378,15.7011,-1.6769
InTeW2,35.7413,37.471,1.7297
AcNdSn4,23.4704,26.1412,2.6708
MnAgBr2,38.2358,32.4536,-5.7822
LiTcMo2,23.9986,25.755,1.7564
Re(NiPt)2,61.6232,44.2246,-17.3986
Sr5InGa5,11.33,12.4882,1.1582
AcPmSn4,23.5085,26.1836,2.6751
SrGaRe2Pb,39.3186,35.3375,-3.9811
InRhAu,38.6811,35.8618,-2.8193
BeAs,13.0195,9.8664,-3.1531
SrScGa,4.8695,8.4878,3.6184
SrHo2Ga,19.6309,21.9577,2.3267
Y6Ho3Er2,20.9158,22.4626,1.5469
U(NiRh)2,28.5428,24.3519,-4.1909
SrMgTlCr2,19.5237,17.2779,-2.2459
InRhAu,38.6583,35.8618,-2.7965
SrScGa,4.7166,8.4878,3.7712
CeTaOs2,36.0378,41.1065,5.0687
Ba2SmGeSe5,24.1163,19.7952,-4.3211
HoSiNiC,20.0993,17.2986,-2.8007
SrSc2Ga,8.1142,10.448,2.3338
DyErCdAg,26.4986,26.8568,0.3582
Mn3Tc2,87.3126,71.8912,-15.4214
Nb3AsCl,89.6975,70.6986,-18.9989
CaYCr,37.7316,29.7992,-7.9324
Si2MoRu3,22.1559,17.8351,-4.3208
NaSr5Ga4,12.2653,13.1834,0.9181
Ca3Y5,18.1561,14.5273,-3.6288
Sr2Tl2Ga,24.3897,26.7706,2.3809
Sr(Zn2Pd)4,10.7792,12.107,1.3278
InRhAu,38.8589,35.8618,-2.9971
Th2Ni2Rh,16.1138,19.0852,2.9714
SrTa3Ga,67.0782,52.07,-15.0082
TaCo2Ag,41.4866,33.4755,-8.0111
ScSn3,24.5544,22.5002,-2.0542
Nd2Ni2Ru,9.0099,13.894,4.8841
SrGa3Tc,13.796,23.9786,10.1826
Ta2GaF,63.9387,51.2602,-12.6785
SmCu4AgH,13.0779,13.3697,0.2918
SrEuInGa,17.0828,18.9415,1.8587
Na2Pu(PbSe2)3,46.4608,41.3566,-5.1042
Ce4TlSn,28.3043,30.4907,2.1864
ZnSiCl2,8.1069,6.5789,-1.528
HoSnAu4,39.2523,41.0144,1.7621
Ba2SmGeTe5,21.5671,21.2216,-0.3456
La3Y2Cd3,29.7943,25.6122,-4.1821
HfI3Br,44.4537,35.5776,-8.8761
LiScCuS2,31.5736,22.4075,-9.1661
Ba2PmGeTe5,21.5349,21.2043,-0.3306
Pu2Ni2Sb,34.4305,33.7614,-0.669
Sr2HgGeSe5,26.4401,21.1744,-5.2656
ZnCoGeN2,56.7962,48.766,-8.0302
NaSc3Mn,29.1296,28.1414,-0.9882
Co(PW)2,101.0944,86.1308,-14.9636
V3AuI,92.8343,73.8245,-19.0099
NbFeO2,42.8835,33.7426,-9.1409
Ac2Cu3Si4Pt,30.4565,25.5664,-4.89
Ba2SrRe,25.9367,21.4586,-4.4781
NaSrIr3,38.8367,35.8511,-2.9857
Y3ZrIr4,38.5606,40.0645,1.5039
Ba2SrRe,26.1147,21.4586,-4.6561
SrGaOs2,20.5432,24.7227,4.1795
Ba2UGeTe5,26.1556,26.5395,0.3839
MnAg2Br,43.6465,36.4737,-7.1728
Sc3Fe7Co2,31.2347,26.7564,-4.4783
Co2AgAs,22.4264,18.2909,-4.1355
CdTcNi2,35.1733,30.2189,-4.9543
SrTl3Ga,34.8529,35.6774,0.8245
Pr2TcCl,21.9015,19.6323,-2.2692
Tl2SiP,33.7485,32.768,-0.9805
Cs2TbBr6,14.4757,16.1539,1.6782
SrBi2W,49.4666,40.4819,-8.9847
EuDyErCd,26.0546,28.175,2.1204
Ac3Si2AsPt9,71.2253,54.5014,-16.7239
ScReAgRh2,53.1838,39.3395,-13.8443
ScSbIrRh,43.447,33.4232,-10.0238
Yb2Zn,25.6572,27.105,1.4478
BeRe2As,18.9472,22.066,3.1188
BeReAs2,19.3098,18.632,-0.6778
KZr2ZnCo,50.7326,39.8921,-10.8405
Li2IrAu,22.9131,24.6812,1.768
ZnCoBi2Pd,34.1969,30.6619,-3.535
Cr7Pt,19.1405,15.0012,-4.1393
Na3SnPb3,33.0733,32.2882,-0.7851
LaThZnCo,39.7254,33.2686,-6.4568
Sr(GaBi)2,24.2815,25.3152,1.0337
Co2AsBr,19.8016,11.5116,-8.29
Cs2Nb(ICl2)2,26.729,23.5108,-3.2183
Sr2Ga2Bi,19.5365,21.1626,1.6261
In2MoSe,26.1606,24.8359,-1.3247
PmYAg2,25.0337,23.4666,-1.5671
SnBiPb4,47.653,49.0176,1.3646
CuSbAsIr2,31.4033,30.8271,-0.5763
GaAg2Te,28.3869,24.959,-3.4279
Nb3MoRu,93.9245,75.753,-18.1715
YZr2Ir,63.3327,57.5392,-5.7935
SbPbBr2,45.2453,40.493,-4.7523
BeSb2Te,33.5825,29.5544,-4.0281
ScBr,4.5829,5.4997,0.9168
Dy4Er4Cd,27.3397,29.4566,2.1169
Na2LaRuO6,13.0435,11.6549,-1.3886
Y2HoPuAs4,19.6258,22.029,2.4033
Mn2SnTePb,64.325,54.9851,-9.3398
Pr4TlSn,10.6784,10.4608,-0.2176
Sb2PbBr,46.4146,42.2518,-4.1628
Er2GaB2Rh5,33.3043,28.4962,-4.808
SmHoNiPt,36.4287,32.3846,-4.0441
Y2ZrS,45.1562,39.134,-6.0221
SbPbBr,47.0909,44.2265,-2.8644
NbSiAs2Se,65.7702,54.1898,-11.5805
Y3BiC,17.721,32.1055,14.3845
YTlPb,38.8615,41.0549,2.1933
Sr2Ga4Tc,21.6356,20.6661,-0.9695
Y3IrS,28.0734,26.6208,-1.4526
CaY4,16.9983,15.7968,-1.2014
Sr(GaTc)2,43.1604,37.7233,-5.4371
Sc5IrPd4,23.091,18.9242,-4.1669
SbPbBr2,45.2599,40.493,-4.7669
SnSbAu4,42.4247,42.3648,-0.0599
TmSnAu4,39.6532,41.4125,1.7594
Th4TlSn,49.4446,53.0454,3.6008
Li2IrPt,33.3517,28.7681,-4.5836
Sb2PbBr,46.3455,42.2518,-4.0937
PrNd2Pu,29.2529,31.9133,2.6603
Hf4SnSb,106.8097,77.86,-28.9497
Dy2Th3Sc7,24.1433,26.5217,2.3784
Y(NbGe)2,57.3995,47.3605,-10.039
Tl2PRu2,22.2481,24.9703,2.7222
Ac2ZnAsPt6,67.568,52.493,-15.075
Tb2HoNi2,13.0549,16.1237,3.0688
SrTlGa2Fe,25.2399,24.1629,-1.077
Tb(ThNi)2,27.3582,31.5283,4.1701
BaAg(H3Au)2,9.75,9.4148,-0.3353
Ac5Ir2PtAu,54.2389,54.0771,-0.1618
Ac5IrPt2O,52.9703,50.4303,-2.54
FeTe2Os,41.5108,35.7232,-5.7876
Th2Ni2Te,30.1093,33.4459,3.3365
Ni2BiTe2,30.1721,30.8113,0.6393
SmY2HoAs4,13.6161,16.2402,2.6241
Li2TlIr,23.7679,26.0128,2.245
Sr4TlHg,17.0506,18.506,1.4554
Cr4Ru3,12.1032,14.3204,2.2172
Sm2Ga3Ni4Rh,16.3113,14.8105,-1.5008
SrAc2YSe4,42.9014,38.1049,-4.7965
Tm2Ni2Ir,3.6067,9.9651,6.3584
Cr7Ru,10.0763,9.6223,-0.4539
NaSc2Sn,17.6502,16.372,-1.2782
ScPS2Cl,43.3258,35.0551,-8.2707
KLi2Au,14.8925,15.0889,0.1964
LaCo2As,27.2523,20.9767,-6.2756
Y2SnAs,24.6981,21.5226,-3.1754
NdZnGaPt3,45.7257,35.6512,-10.0746
Zr2TcRu,75.8717,66.236,-9.6357
KBaLi2,7.2538,6.3111,-0.9427
Cd2SiCl,14.3193,13.3013,-1.018
CsKNa14(SiO4)4,14.1861,11.7302,-2.4559
Tb2Th3Sc7,24.0145,26.381,2.3665
Rb2TeI6,17.322,17.2488,-0.0732
YTlTe,35.1121,35.7194,0.6073
Y2TlTe,29.4875,30.6488,1.1614
Cs2MnSn(AsO5)2,16.2829,14.5061,-1.7768
Ba2CrRu,11.5287,11.4698,-0.0589
Ca2HgSb2,18.2963,15.138,-3.1583
LiFe2,17.0249,15.4479,-1.577
Na(ZrSc)2,40.723,37.1042,-3.6188
Y2AuS,25.7641,25.947,0.1828
HfP2OsS,51.74,43.3659,-8.3741
LiBeV,39.7077,32.1752,-7.5325
Nd2Zn3Ga4Pt,18.9545,17.5935,-1.3609
PmMgTlRu,30.545,30.3289,-0.2162
PrSm3DyTh,22.1824,25.1096,2.9273
Ce2Mg4Sn3H2,12.795,13.7478,0.9527
Y5Tl6Pb,35.2338,36.361,1.1271
Y5TlPb6,35.903,37.2555,1.3526
Sr2TmMnO5,28.6126,27.8504,-0.7622
CeY(HoAs2)2,15.4388,17.775,2.3361
Ac4RuPtI2,53.4454,50.5422,-2.9032
NaScTi,14.4873,17.8309,3.3436
Tb3Tm2Sc7,14.9686,16.943,1.9744
DyBCl,3.8473,8.7325,4.8852
YTlPb,39.0763,41.0549,1.9786
CsEu2Ni,21.8355,22.9946,1.1592
CePrTl,23.5127,25.822,2.3093
Pr2ScTaO6,33.0476,27.6488,-5.3987
RbTc3Pt,77.1843,60.6471,-16.5372
Ac4As2PtS,51.582,48.0674,-3.5146
EuAl6Cu,6.9229,7.8194,0.8964
Be2AgBr,13.141,10.548,-2.593
P2IrI,21.8008,20.2663,-1.5345
BaCr3P,34.3147,28.4348,-5.8799
Be2AgBr,12.3198,10.548,-1.7718
Cs2NaSr2(MoO4)4,16.1393,14.6708,-1.4686
Mn2SbMoC,63.9742,51.1226,-12.8515
Tm2Ni3P2,19.399,18.3621,-1.0368
YTlPb2,42.3754,44.4418,2.0665
BeAgBr2,14.0212,13.7693,-0.2519
RbTeI3,20.0718,19.879,-0.1927
BeAgBr2,14.2089,13.7693,-0.4396
Rb3TeI6,17.7821,17.4957,-0.2865
La2TiCd,28.378,23.909,-4.469
Te2PbI,40.1372,39.6928,-0.4444
Ac4SbTe2Pt,58.2755,54.9668,-3.3087
BeAg2Br,19.7056,16.268,-3.4376
InW,30.7875,29.0278,-1.7597
PIrI2,27.3315,25.1475,-2.184
AcSm3Ho,29.7678,32.384,2.6162
K3TiCl6,0.8126,1.1813,0.3686
YHo2NpAs4,21.2813,23.735,2.4537
Ac2SmTh,55.291,58.1499,2.8589
TeMoPb2,43.5556,41.4861,-2.0695
YHo2PaAs4,20.8384,23.2603,2.4219
Rb2Te2I,21.2678,20.0744,-1.1933
CaYTl,30.2244,27.637,-2.5874
Sr4CdAg,18.8747,17.2655,-1.6092
Sr2Ag2I,19.3782,18.1336,-1.2446
TmNi3P,13.6957,14.9198,1.2241
Y2BCl,83.7653,74.8154,-8.9499
Ac4Ir2PtSe,59.3233,56.5685,-2.7548
KCoW2,26.7101,27.726,1.016
VGe2P,32.7034,27.558,-5.1453
V6GeP,98.3373,76.3823,-21.9549
CdAg2Sb,31.744,27.4099,-4.3341
Fe2SiCl,12.2148,9.0701,-3.1447
Sr4TlCd,22.0612,21.8382,-0.223
Co(PW)2,110.0303,86.1308,-23.8994
Rb2SrReI6,22.0479,19.7424,-2.3056
SmY(HoAs2)2,15.4297,18.0305,2.6008
Li2BePt,23.2245,17.237,-5.9874
La2AlZnH,22.4784,18.018,-4.4605
Ba2CaTmTe4,23.9444,23.8059,-0.1384
Dy2Y3Ho6Pu,28.2254,29.6604,1.435
Ho(ZnNi)2,10.8163,13.0846,2.2683
InOs2Rh,38.56,38.4501,-0.1099
Ac4OsPtBr2,51.2048,49.554,-1.6507
SrAc4Sm,49.4767,51.5445,2.0678
InOs2Rh,38.2192,38.4501,0.2309
TmTh2Nb,76.6251,72.6006,-4.0245
ScBi,13.7146,21.112,7.3974
CsTi3Bi,20.6014,21.6932,1.0918
La2YHoAs4,21.6687,20.3677,-1.3011
Tm3Ni8Ag,13.9826,15.3507,1.3681
GdP,33.6086,28.0201,-5.5885
TaMn2Pb,72.3843,64.0545,-8.3298
Mo2OsRu,28.9185,26.8768,-2.0417
Co2SbAs,25.6127,20.7654,-4.8473
TaMnPb2,61.1833,57.9772,-3.206
Sm4IrSeI2,35.6056,32.5568,-3.0488
Na2ScSO6,36.0045,31.9731,-4.0315
TbTmAg,29.4867,29.3909,-0.0958
CrNiSb3,39.1757,33.1993,-5.9763
Pa2AlSi4Ir3,35.943,34.6345,-1.3085
HoTmNiPt,37.7658,33.8101,-3.9558
PrTmInNi,20.1521,20.3405,0.1884
CoTcHgAs2,27.9347,23.1605,-4.7742
GdTmNiOs,27.9665,30.5158,2.5493
Pu6P5S,41.2507,42.7147,1.464
SrLaAg4,31.4746,25.2766,-6.198
SbRh2WC,51.4007,39.1993,-12.2014
YRh2W,47.4644,32.9385,-14.526
AlCuGe,7.4121,6.9025,-0.5095
Tm2ZrNi2,27.8845,28.1748,0.2904
Pa2SbAu,56.4586,56.8036,0.3449
Ca2ScSb,19.7892,16.1511,-3.6381
Sr4TlBi,23.3753,25.1253,1.7501
Tb2NiBr2,15.3695,18.0908,2.7213
BaSi2AgGe,14.6399,10.7638,-3.8761
Li3Y(HoSe3)2,28.3973,23.9757,-4.4216
Rb2YWI6,22.7434,18.9184,-3.825
Ni5Rh,13.3752,13.4522,0.0771
SrCd4Au,22.5563,22.114,-0.4422
SrCeCd4,20.722,20.1639,-0.5581
Ba2BeBr,2.7947,3.7671,0.9724
Ba2BeBr,5.2272,3.7671,-1.4601
AcZnHPt2,44.6234,37.9438,-6.6797
InRhPb2,43.5018,41.7705,-1.7313
CoRhC3,51.7402,36.9473,-14.7929
SrCd4In,19.8208,19.0431,-0.7777
Pr6Dy3Tm,3.9876,6.6684,2.6808
Ca(Sc3S4)2,46.2834,38.6957,-7.5877
Ca2TbY,17.7817,16.5393,-1.2424
Y2Rh2W,32.018,21.6,-10.418
Ba2Li3YSb4,30.0833,25.3622,-4.7211
Pm2NiI2,19.4802,21.2551,1.7749
ThAlCd2,23.2918,26.189,2.8972
Th2NiI2,36.0635,39.3369,3.2734
Ti2MoRu,3.2802,9.8385,6.5583
YAuS2,36.8537,31.2611,-5.5926
SrMnI2,39.4142,34.8611,-4.553
TmHfBi2,70.5948,61.9373,-8.6576
ZnInBiSb,31.923,31.3673,-0.5557
Sr2BiMo,20.7692,24.9124,4.1432
Ni(MoPt)2,56.8925,45.6118,-11.2807
SrCeIn4,19.2563,21.0079,1.7516
Yb2SnN,26.2342,27.7527,1.5186
Ni(PdAu)2,27.8317,29.5811,1.7494
NdTmNiRu,19.1108,22.6598,3.549
NbSb2TeBr,63.3295,52.9594,-10.3701
KCr2Sb,19.364,16.4428,-2.9212
CsLi4Tl3F12,12.2152,13.097,0.8818
CsPRu,9.045,11.4877,2.4426
ErZrSbH,36.577,35.4657,-1.1113
CrTeMo2,23.1305,22.0851,-1.0454
ZrUH4,27.8134,26.4779,-1.3355
CrTeMo,25.7723,22.9503,-2.822
Nd2MnGa4Pt3,44.2766,35.5138,-8.7628
HoIn(CoH)2,4.9171,7.862,2.9449
Y2RhW,38.7012,28.1294,-10.5718
HgRuPb2,30.8856,32.5714,1.6858
Y2IrCl,53.5199,54.3877,0.8678
Y5Zn3,9.6269,8.8014,-0.8255
LuSiNi,17.4022,18.2302,0.828
Li2TaPb,19.0591,22.8468,3.7877
La2Pr2YCd5,20.1413,17.6087,-2.5326
TcNi3,27.8506,26.7813,-1.0693
KNi3I,11.4763,11.9625,0.4861
KSiCl,10.6878,7.5598,-3.128
Zr2BiRu,59.2504,56.3241,-2.9263
FeTeAu,30.1515,31.5528,1.4013
YIrCl2,51.6842,50.3866,-1.2976
MnBeTe4,45.6597,40.1936,-5.4661
Tm2Tl5Pd12,27.4538,28.7029,1.2491
Pr2NiRh2,17.9079,14.2481,-3.6598
FeTeAu2,34.5172,36.6064,2.0892
NaScSi,32.6707,29.8307,-2.84
LaTmZrSc,46.5902,41.1466,-5.4436
SrLa2(ZnSi)2,29.3892,22.5035,-6.8857
TmNiSn,26.6887,24.1925,-2.4962
Sr2CdOs,22.6774,22.5188,-0.1586
HfRu3C,53.1665,42.0612,-11.1053
YIrCl2,51.42,50.3866,-1.0334
Ni(IrRu)2,23.6267,22.8497,-0.7769
Tm6Te2C3,40.1354,35.9326,-4.2028
HgRuPb,18.9248,22.8534,3.9286
TaAl2Rh,22.6578,21.782,-0.8757
TcTePb,62.9328,57.8678,-5.065
FeTeAu2,34.3829,36.6064,2.2235
Sc2IrI4,25.597,21.9295,-3.6675
Ni(RuRh)2,37.3476,30.9728,-6.3748
Ba(GaAg)2,14.9493,12.2017,-2.7476
Ac8TePt3Se4,62.2229,55.516,-6.7069
Li3MoRu,9.7319,9.225,-0.5069
UNbSb,85.1317,74.8036,-10.3282
LaSiCl,22.9751,17.0467,-5.9285
Er2B2Ru5W,20.5404,19.2155,-1.325
ZrTc2Te,81.363,69.79,-11.573
SrPmAu4,37.1714,38.7571,1.5856
Zr2TePb,72.5327,65.249,-7.2838
Ac8ZnPt3Br4,51.9697,47.2936,-4.6761
Zr2TcTe,82.495,70.6791,-11.816
LaCeLuSc,28.9241,27.9197,-1.0044
ZrTcTe,78.0266,67.5019,-10.5247
TcTePb,63.0155,57.8678,-5.1477
As2OsI,16.4835,20.7445,4.2611
SrTc2Ir,58.9773,50.6071,-8.3702
KLi2Ni,5.3173,4.8293,-0.488
TmSiNi2,7.6598,10.8061,3.1464
InPtRh,52.858,40.6315,-12.2265
AcPrPtAu,48.2848,44.3727,-3.912
GeSbAs2Br,24.1616,22.0446,-2.117
TlCdGa2,19.6789,21.4117,1.7329
NdInCu2,11.1523,13.035,1.8828
CsMg14Co,5.4003,5.2421,-0.1582
RbLiTl2Sn,26.6291,26.4303,-0.1988
NiBi6Pt,52.9807,50.3089,-2.6719
Nd2TeAs,23.8678,26.4241,2.5564
CsMg14Co,5.3935,5.2421,-0.1514
InPtRh,52.6838,40.6315,-12.0523
SbPt2Rh,68.02,50.4823,-17.5377
Ac6CoPtPb2,54.3029,52.04,-2.263
MnSnIrSe,53.0582,47.3308,-5.7274
Tm8In2Ga,26.4218,27.9641,1.5423
Tm2InGa,21.9173,24.6698,2.7525
YTlW2,45.5991,39.7663,-5.8328
Ce2Ni2Ir,4.2618,7.804,3.5422
La2SiCl,29.5825,22.1612,-7.4213
Tm6In2Ga,25.6448,27.5208,1.876
Ba2PrScS5,27.8419,21.3679,-6.474
Tm6In6Ga,23.7124,24.8666,1.1542
Tm2Si3Au2,22.8235,22.3623,-0.4613
Er(ThNi)2,27.8734,32.0494,4.176
Tb3Fe7Si2,10.196,9.9538,-0.2422
CrNi3Au,24.855,23.9961,-0.8589
Tm2Si4Pt3Au,42.7199,33.2357,-9.4841
Ni2Pd2W,20.2138,20.5034,0.2897
Ni2Pd2Rh,19.9326,18.8825,-1.0501
Sc2CdI,12.9903,14.7123,1.7219
YMoW,39.8673,33.2505,-6.6168
Ac(H4Pt)2,22.165,17.6138,-4.5512
SrTl4Sn,36.692,37.7791,1.087
Ca2(Pm2Dy)3,21.9358,25.0349,3.099
Er2Zn3Si,12.4579,13.3883,0.9304
Ac2TbScS5,45.2344,38.9607,-6.2737
Ac2TmScS5,45.7168,39.4681,-6.2487
Pr6Er,1.3371,2.1977,0.8606
YMoW2,39.4986,35.6301,-3.8685
SiSn2P,14.2439,15.5038,1.2599
Er2ZnSi,20.5166,21.3289,0.8123
ScCuSn2S5,45.9816,36.1434,-9.8382
ScCuSb2S5,44.0481,32.3077,-11.7404
TmSi3NiRu,11.6963,10.3358,-1.3604
Y2ScCuS5,37.6803,28.8536,-8.8267
ScU2CuS5,46.4491,37.4665,-8.9825
TmZnCo2,19.4882,16.46,-3.0282
Tm2Fe(SiNi4)3,14.8609,14.1983,-0.6626
Mn2SnRh,59.793,48.3115,-11.4815
BiTe5Pb4,47.2284,46.1354,-1.093
ReTcNi2,55.7742,41.9328,-13.8415
SrAcTe4,35.7246,36.1391,0.4144
FeRu2W,45.3015,36.0201,-9.2814
ZnFe2H4Au,4.6247,4.7113,0.0866
Dy3Er2Cd3,24.5686,26.3055,1.7369
YAg2W,62.3865,49.7414,-12.6451
Ac2Co(NiPt4)3,72.3862,54.5431,-17.8431
Tm2InNi4Ge3,18.1621,15.9679,-2.1943
ZrCo2As,38.6301,32.486,-6.1441
YTiPCl2,35.2067,33.5482,-1.6585
Y2HgTe,35.2015,31.4227,-3.7788
TlSiTc2,63.1934,54.2967,-8.8967
Tb2PrIn,17.1003,20.0,2.8998
Zn2MoRu,13.3732,14.7348,1.3616
Tm2Ni4Ge3Ir,21.3192,18.7565,-2.5627
BaMg14Cu,4.4568,3.8081,-0.6487
MgNb3Sb,95.7554,76.3455,-19.4099
Na3LiMn,36.4678,31.9573,-4.5105
Tm3Ni9GeP2,18.2325,16.2978,-1.9347
YAg2W,62.4154,49.7414,-12.674
AcU(H3Pt)2,30.8985,26.8493,-4.0492
TmSi2NiPt2,39.9967,30.6698,-9.3269
FeSb,24.7213,26.3599,1.6386
Pr6DyY2Ho3,10.9858,11.2148,0.229
AcH8IrPt2,23.7826,20.3387,-3.4439
InRe2Rh,37.5066,37.0808,-0.4258
InOs2Au,38.4254,41.4096,2.9842
InRe2Rh,37.612,37.0808,-0.5312
NaAcPmAu,40.1521,41.0901,0.938
Na(SrTa)2,33.9426,26.8609,-7.0817
Tl2SiTc,53.1809,47.7112,-5.4696
FeBiSb2,41.5814,37.0653,-4.5161
BaFe3Sb,22.7236,17.7938,-4.9298
BaFeSb2,27.5648,22.5041,-5.0608
AlCdGa2,7.3681,9.4148,2.0468
AcTb2(YHo)2,28.905,30.5086,1.6036
RhWSe2,46.4443,39.1813,-7.263
Mo2RuPt,37.2428,31.627,-5.6158
DyErCdTc,42.0707,40.1587,-1.912
YMo2W,33.9395,30.4279,-3.5116
AcDyYHo2,27.693,30.6709,2.9778
HgIrAu3,37.9518,38.7209,0.7691
Be(InC)2,29.714,23.6067,-6.1073
YHoTiAl,29.7871,25.8879,-3.8992
MgTi2VH8,12.4534,10.3708,-2.0827
MnMo2RuC,43.7225,37.7938,-5.9287
RbReSn2Bi,29.8603,30.2017,0.3415
Be(InC)2,33.0854,23.6067,-9.4787
Hg2IrAu,22.9012,24.4255,1.5242
Y2HoAl2Pd5,20.382,18.835,-1.547
Ac2CdH6Pt,23.4645,22.1445,-1.32
ReSb2TeOs,44.3682,41.5217,-2.8465
Tb3Sc5S12,27.3305,22.0098,-5.3206
K2CdCu2,9.5971,9.8309,0.2338
LaYHoAl,39.3073,32.4398,-6.8675
RePI3,39.9061,34.3857,-5.5204
CaSc(H3Ir)2,10.5971,7.2305,-3.3665
Ac2Th(H4Pt)3,25.5482,22.2423,-3.3059
BeTlCd2,23.6862,23.7045,0.0182
Cs6TeO2,12.2949,13.2726,0.9777
SbRh2O,37.1915,30.7076,-6.4839
Cs2RuO3,3.3469,3.666,0.3191
In2IrI,27.2535,28.2658,1.0122
YMo2W,33.7888,30.4279,-3.3609
Cd2SiGe2,11.6767,11.6259,-0.0509
SiOs2Cl,26.5494,27.3925,0.843
YMoW2,39.5548,35.6301,-3.9247
AlTl2Sb,37.5092,36.6753,-0.8339
AuBr2Cl,18.7946,18.7173,-0.0772
BeTlCd,25.01,25.0977,0.0878
CrHg3,0.1349,0.3379,0.203
CaGaN2,0.0,2.0658,2.0658
YMoW2,39.6965,35.6301,-4.0664
CdPt2O,45.42,34.0702,-11.3498
CsNa3(SO4)2,0.0,0.3862,0.3862
Ac2Pt,72.9752,65.8607,-7.1145
La2Te(HI)2,26.3575,23.9173,-2.4402
Be2TlCd,19.7443,19.5862,-0.1581
CdPbBr2,30.6142,30.0442,-0.57
BeIrBr,13.2093,16.6296,3.4203
CaYHoAl,27.6629,24.4473,-3.2156
Ag2RuSe,28.7601,25.2487,-3.5115
SmNp(AgO3)2,7.362,9.7607,2.3988
Ac3(AlPt)4,50.1918,42.5014,-7.6904
V2SbOs,86.2787,71.2749,-15.0038
IrPtAu2,57.165,52.8096,-4.3554
ZrCu2Cl,29.4386,25.7946,-3.644
Eu2PdRh,30.3691,28.1843,-2.1847
CaSb2IrW,43.6944,36.9656,-6.7288
LaZr2ScFe,67.5912,56.1662,-11.4251
DySi3Ru,12.963,10.9023,-2.0607
YMoW2,39.6261,35.6301,-3.996
SiPbCl,24.2705,23.1192,-1.1512
TaAlPt3,62.5102,47.163,-15.3472
BaSrAu4,33.0515,34.4086,1.3571
Zn2CdRe,48.0943,39.1848,-8.9095
Ba4SrHg,2.0229,3.3254,1.3025
AcInPt,46.5606,42.0474,-4.5132
SrGe3Bi,19.8858,20.3985,0.5127
Ac3As2(HPt2)2,51.3388,42.7855,-8.5533
HfFeSb,52.2864,37.3868,-14.8996
Cd(AuI2)2,29.1865,29.9618,0.7754
EuSnPd2,23.3582,23.1935,-0.1647
Y5(NiGe)2,54.9844,46.9476,-8.0368
YMo2W,33.685,30.4279,-3.2571
BeHgC,16.7346,13.3073,-3.4274
NaGeB,12.377,12.0351,-0.3418
Y2MoW,43.371,28.1922,-15.1788
CsLaTi3,19.8201,17.7636,-2.0565
NdDy6Y3Ho2,23.9424,25.3517,1.4093
Hf2Sb2P,68.6408,50.1889,-18.4519
Y2MoW,43.6236,28.1922,-15.4314
Te(AsRh)2,26.3825,22.3392,-4.0433
Rb2NiCBr6,13.7135,11.7229,-1.9907
ErTiGa2,12.4401,15.3337,2.8936
Ac2La2Pt3,64.3602,51.5836,-12.7766
CeYCSe,45.0773,38.7534,-6.3238
LuMgSnRu,18.3865,21.1332,2.7466
MnAgTe2,53.7573,45.4574,-8.2999
LiLaYIn,22.6424,19.8331,-2.8093
MnInTe2,50.6902,45.3397,-5.3505
FeTeOs2,41.5104,37.3963,-4.1141
Pr4Sm2Y,8.1362,10.1595,2.0234
InRe2Rh,37.5799,37.0808,-0.4991
TaBi3C,53.981,50.4614,-3.5197
Be2TlMo,21.2019,19.286,-1.9159
Mn2Te4Rh,59.3865,49.7568,-9.6297
MnTe3Ir,54.8683,48.9453,-5.9229
KSrBi2,33.2414,32.7816,-0.4598
Be2TlMo,21.3061,19.286,-2.0201
Na2Zn2Ag5Pb,25.0307,21.6725,-3.3582
BeTlMo2,26.145,24.724,-1.421
Y2Ho4Al,29.186,29.5681,0.3821
Si(IO)2,40.8316,32.0193,-8.8123
MnTc3Te,85.7411,70.5045,-15.2366
Pr2TmMg,6.0917,8.7155,2.6238
Cs3NdV2O8,23.882,20.2993,-3.5827
BeTl2Mo,33.3007,31.8585,-1.4421
BeTl2Mo,33.2284,31.8585,-1.3698
YMnIr,43.1569,41.6666,-1.4903
Cs2MnGeTe4,40.1837,36.8508,-3.3329
Y6CoCuBi2,33.0907,29.7477,-3.343
CsMg14Mn,10.2033,9.3823,-0.821
YMoW2,39.828,35.6301,-4.198
Cs2Mn(CuTe2)2,36.1714,32.9517,-3.2197
ReTeAu2,44.8862,45.6512,0.765
BaAcHPt,34.1312,28.9573,-5.1739
PdRh2,32.1939,26.5811,-5.6128
PrDy2F11,1.5213,3.6742,2.1529
Mg14BiMo,6.9003,7.455,0.5547
AcNdYHo,32.9376,35.7367,2.7991
Pr2MnGa,29.1631,23.9408,-5.2223
AcNd(H3Pt)2,21.6654,17.1097,-4.5557
LiAcYHo,27.0513,29.1698,2.1186