Formula,E_hull_DFT (eV/atom),E_hull_ML (eV/atom),Delta (ML - DFT)
TmU4In15,30.0674,31.2577,1.1903
Ba2VPbO5,12.4158,10.4863,-1.9294
Cd4P12I,8.8668,9.3164,0.4496
Y2NiTe,73.8977,65.8074,-8.0903
FeGeTe,12.3883,15.7856,3.3973
Y2HfTe,46.9298,38.9714,-7.9583
Sm4Te3Au,32.9704,33.3521,0.3818
ZrSiSb2,50.7927,41.9608,-8.8319
PuZn(CoO3)2,14.3378,14.2835,-0.0544
DyCr2GeO6,6.8194,6.9581,0.1387
ErCr2GeO6,7.7743,7.223,-0.5513
TiRuCl2,2.6259,3.4637,0.8377
Cs2NpVO6,23.3372,21.3047,-2.0326
HfCr2InO6,21.8405,17.6256,-4.2149
Y2(ScSe2)3,28.4284,23.9589,-4.4696
InF,1.0063,3.3257,2.3194
Cs2Sr4P,14.9431,15.9748,1.0317
K2AuF,18.8811,18.5831,-0.298
LaHSCl2,22.5214,16.2959,-6.2255
Cs3Y3ThS8,40.436,33.6578,-6.7782
HoHfCr2O6,21.3843,15.9338,-5.4505
GaCo(GeO3)2,3.5261,3.702,0.1759
Co2BiSe,29.2162,28.605,-0.6111
Tb3PmPrSc,13.5917,15.2144,1.6228
Ba2AcSb3Pt4,54.8792,42.9253,-11.9539
Er5InGa2,18.0242,21.1596,3.1354
Nb3BiPt,114.6227,91.6473,-22.9754
Co2BiSe2,32.5558,29.7465,-2.8093
NdTmIn6,21.3804,22.6649,1.2845
CeHo2Tl,32.9507,34.9872,2.0365
TbZrInCu,37.7169,36.0217,-1.6952
Fe2CoHgPd,18.7397,15.0149,-3.7248
Rb3Zr,27.0287,21.8487,-5.18
Ce2ScTi,15.2467,18.7599,3.5131
AcPmErPb,42.7469,45.4035,2.6566
ZnPb,27.8556,30.3035,2.4479
In2Ag2Bi,28.4696,27.2248,-1.2449
ZnIrBr2,23.022,19.696,-3.326
Ac2TmCoO6,6.9922,11.003,4.0108
CoPb2WO6,10.7985,13.5757,2.7772
CuW,22.9874,28.1779,5.1905
Ga2SnBiO8,34.2263,28.6533,-5.573
P(IBr)2,16.8837,15.9418,-0.9419
CeCr2FeO6,9.9221,8.2196,-1.7025
Y2ScSe,19.4674,19.9847,0.5173
Tb2NdSi2,15.2635,16.0148,0.7513
PbI,29.7121,31.7668,2.0546
HfCr2FeO6,20.6683,15.5894,-5.0789
Pr2CrMoO6,10.6756,9.9432,-0.7324
RbThMg,21.7763,23.4435,1.6672
SmCr2GeO6,6.4406,6.801,0.3604
Cr2SnGeO6,25.1683,20.6459,-4.5224
NbCr(PbO3)2,25.5674,22.9828,-2.5846
AcAlPt3,60.4745,47.2454,-13.2291
Ca9B2(CCl2)4,11.4155,8.0835,-3.332
AcZrCu4,31.7197,30.7403,-0.9794
ErLuTh,43.0117,46.7346,3.7228
Ac4Te2Pt,60.7993,57.0956,-3.7037
Cs2CeBeO4,3.4111,5.0235,1.6124
RbMo2P,12.3343,10.0474,-2.2869
AcCr2SnO6,30.1425,25.4772,-4.6653
CrFe2PbO6,13.5018,11.6301,-1.8717
Sr3Tc5N12,2.593,0.0423,-2.5506
Cd2BiSb,34.5782,33.6803,-0.8979
YCr2SnO6,32.6435,26.5509,-6.0926
ZrZnGaCu,31.7059,27.9398,-3.766
Ta5Pb,39.5748,44.4474,4.8726
Pt2RhSe,63.6244,46.9416,-16.6827
Zn2Hg2Br,4.4201,5.2873,0.8672
RbSi2Rh,15.0798,10.2834,-4.7963
Cd12Sb3P5,11.6284,12.3417,0.7133
AcHoPt,54.1303,49.2198,-4.9105
Pm2CdGaO6,12.9283,13.6796,0.7513
AcSm2Pt,44.9018,30.643,-14.2588
Pt2RhSe,69.3044,46.9416,-22.3628
RbMoP3,17.857,12.2439,-5.6131
AcPrSiPt,40.3582,34.7268,-5.6314
LiTbDyPd,17.6505,20.3332,2.6827
ReAg2Te,32.8033,33.8711,1.0678
LaW3,32.3047,36.7268,4.4221
BIrC,41.8045,37.3918,-4.4127
Zn2TeP2,13.137,13.3627,0.2258
Lu2ZrI,46.867,44.7201,-2.1469
ZnInTe2,28.0042,27.1233,-0.8809
TlGaAgSe,31.5247,28.4521,-3.0727
LiBe2Sb,13.3829,9.1366,-4.2463
PtPb2Se,56.2637,49.5516,-6.7121
Pm2GdAu,31.1934,33.8727,2.6793
Tm6SbC2,38.5635,35.0228,-3.5407
ZnIn2Te,22.3488,22.5602,0.2114
Lu2TcAg,47.6102,44.0258,-3.5845
Ca3HgRu2,7.9981,10.1734,2.1753
Ba2CuReO6,3.8039,5.3312,1.5273
TlAg2Mo,32.7511,30.5113,-2.2398
Ge2BiPbO6,5.8965,7.5491,1.6526
PaCu2RuO6,11.2697,11.6867,0.417
AgGe2PdO6,6.3698,5.9241,-0.4456
Ba2UCuO6,7.7635,8.4337,0.6702
BeSn3Se,25.6078,21.3195,-4.2883
Ba2PaFeO6,8.7521,8.6093,-0.1428
RbAlSn,8.9448,9.5243,0.5794
La(H3Au)2,12.6144,12.5693,-0.0451
YZr3Os,72.9305,63.0347,-9.8957
SmAuN,17.1715,20.8113,3.6397
GaCu(AuO3)2,13.0441,13.349,0.3048
Sr3As5S12,27.4793,17.0376,-10.4416
CsLi2P,12.0127,12.2012,0.1885
YZr2Os,64.1428,58.0263,-6.1166
BeCrP,22.1128,23.5768,1.464
SmBe2GaAu4,27.5547,29.5143,1.9596
AcP2PtRh5,44.667,34.3918,-10.2752
Sm2AuN,23.5551,27.0302,3.4751
Sm2CuPtO6,14.1178,12.6129,-1.5049
CuTc(PbO3)2,16.1144,16.4124,0.2981
CuBi2RuO6,9.3925,11.4757,2.0832
CuSn(AuO3)2,26.2788,23.1178,-3.161
LiSm2Hf,48.9811,40.3863,-8.5949
Cs2Na2Cu,19.7679,18.3347,-1.4332
RbAlSn,0.0,9.5243,9.5243
Ac2TbSb4Pt3,59.4801,49.7152,-9.7649
Tb2PmEr9,28.5434,29.9275,1.3841
SiNiSe,23.553,19.8958,-3.6571
Pm2TlGaO6,16.0635,16.3861,0.3227
RbAlSn,6.3351,9.5243,3.1892
RbTeSe2,34.9374,29.9554,-4.982
Y2ZrOs,43.9711,41.6999,-2.2712
Ac2La2Pt3,70.5271,51.5836,-18.9435
Ca(HfP)2,62.4591,44.5306,-17.9285
YZr2Os,64.0252,58.0263,-5.9989
Rb2TeSe2,24.6916,20.0069,-4.6847
Tm4BiC,33.9646,34.7572,0.7926
Sm2ThSc,30.3448,32.7309,2.3861
Rb(MnP)2,46.5479,36.416,-10.1319
InNiBiP2,22.2531,21.4235,-0.8297
NaMnIn2Sn,37.9691,36.3957,-1.5734
NpIn(FeO3)2,16.849,15.6644,-1.1846
HfIn(FeO3)2,24.0748,18.4211,-5.6536
HfFe2PbO6,24.7869,18.8335,-5.9534
Na(LiS)2,23.3121,15.3021,-8.01
Fe2BiSbO6,21.6236,19.4041,-2.2196
TaBe2Cd,19.9292,19.4575,-0.4717
CdFe2TcO6,16.8245,13.7889,-3.0356
ZrFe2SnO6,35.7849,28.1047,-7.6802
Na(LiS)2,23.2896,15.3021,-7.9876
PmFe2TeO6,6.0868,5.4267,-0.6601
ZnIn2Re,33.464,27.3382,-6.1258
FeGe(BiO3)2,8.0742,9.9413,1.8671
AcFe2WO6,17.3436,16.3596,-0.9841
FeCo2WO6,12.6109,12.329,-0.2819
AcFe2TcO6,20.9488,18.4407,-2.5081
Ac2AlTlPt,49.0728,46.6152,-2.4577
AcTlSnPt,55.922,51.8309,-4.0911
Tl2FeW,33.1544,34.7341,1.5797
Ac8Ru3PtCl4,43.6252,40.2526,-3.3725
SrZnBr2,9.1156,10.6249,1.5094
NaEuAu2,36.3055,36.458,0.1525
Ac6SnGe2Te3,44.8893,45.4715,0.5822
TbTh2(TeAs)2,36.661,37.4335,0.7725
Ce(Ga2Tc)4,35.3708,31.2192,-4.1516
LiNd2Lu,20.9697,23.5845,2.6148
Be2TeW,26.2177,21.6119,-4.6057
FeBi2PdO6,15.1178,15.4676,0.3499
Rb2NbPd,38.3962,32.0315,-6.3647
Mg(H3Rh)2,4.0911,2.2548,-1.8363
ZnSb2W,29.8381,29.4821,-0.356
CeY3N4,48.349,42.2623,-6.0867
BeTeW,31.3562,30.4549,-0.9013
RbSm2,17.6091,19.1803,1.5712
InSnRu2,18.1841,21.2301,3.046
La4SiPtBr2,41.2886,30.5852,-10.7034
SrSn2P,12.6079,14.5686,1.9607
NaLiGe2,10.7857,11.2645,0.4788
La2SiTePt6,69.1995,50.4668,-18.7327
LiWBr2,25.1118,24.7714,-0.3404
Si4PRu2,20.105,14.5846,-5.5203
AcBeGe2Pt,33.8962,30.4193,-3.4769
Ac2Ge3Pt4Pb,55.9153,46.6221,-9.2932
PaGa2AgO6,16.5929,15.2975,-1.2954
NaGe3Br,13.7411,13.4002,-0.3409
LiTm2Ti,16.8424,19.6363,2.7939
CdSn2Ru,19.5203,21.6795,2.1592
Ac2GaHgO6,19.03,18.9488,-0.0812
La2NdSi3Pt4,52.0363,37.6045,-14.4318
Sr2GaPbO6,8.7799,9.756,0.9761
Zr2SbP,60.8378,52.536,-8.3018
SiTcNi,37.772,32.9473,-4.8247
Sr2GaWO6,17.5216,15.8655,-1.656
Sr2GaPtO6,12.0734,10.7825,-1.2909
GaTe(PbO3)2,16.9966,16.8976,-0.0991
HfAsRh,50.1948,37.104,-13.0908
PmZnHg3,4.4074,6.6341,2.2267
SnAsIBr2,15.5217,15.8252,0.3035
SiP3Pb,18.9869,18.302,-0.6848
SmPdAu,24.0403,28.0318,3.9915
LaCrRe3,38.0506,37.7986,-0.252
Ac2PuHfO6,22.5395,22.4393,-0.1002
Sr2TlGeO6,8.8734,9.062,0.1886
YTeBr,21.7149,23.5612,1.8464
LiBeAg,12.0685,9.976,-2.0925
YMn,4.3049,7.522,3.2171
Ta2SbP,32.634,32.2337,-0.4003
TlCuW2,27.5746,33.1379,5.5633
PrSm2Y,15.5759,17.5022,1.9263
K2SrO3,0.9067,2.2462,1.3394
Sr2GaSi2,30.3721,21.5705,-8.8016
La2SiPt,51.5482,37.801,-13.7472
Cr3ReGe,27.3828,22.1294,-5.2533
ZrCuGe3,26.3607,24.5035,-1.8572
Tc2IN,55.262,46.4321,-8.8299
NbZnSe2N,56.9396,45.166,-11.7736
CsIn2Rh,28.7645,26.0713,-2.6932
GeAsPt2,49.517,38.3692,-11.1478
In2SiAu,25.6397,24.9834,-0.6563
Zr3BeCu,64.5309,53.513,-11.0179
GeAs3Pt,26.8286,21.9668,-4.8618
Zr(CuSi)2,24.1017,19.7669,-4.3348
AcCu(SiPt)2,46.5432,36.5239,-10.0194
Sr(PtO2)6,29.5385,21.2678,-8.2707
Sr5(ReN3)2,42.816,38.6498,-4.1663
Sr(InPd2)6,17.7954,18.8746,1.0792
Hf2Ru2Pt,71.8691,53.4608,-18.4082
Sr(LiSn2)6,13.7652,14.4743,0.7091
EuHgAs,12.9187,13.6231,0.7044
Ac2La(SiPt4)3,71.6352,53.309,-18.3262
ZnCdBi2,34.1905,35.2009,1.0104
ZnSb2P,25.6252,23.1365,-2.4886
Ce2Ga3Cu4Si,13.6325,12.034,-1.5984
Y12Er2Tm5,20.0552,21.118,1.0629
Zr2BeCu,54.9826,46.4289,-8.5537
Si2OsAu,30.0476,28.59,-1.4575
Sm2Ge4Pd3Au,18.0206,19.6753,1.6547
Sc2TlW,19.7013,23.6916,3.9903
NaAc2Pm,44.7535,45.7182,0.9648
ErLuTl,37.7959,40.3521,2.5562
In2CuTcGe,30.7968,27.8446,-2.9522
ErTh2Sn9,28.59,29.8749,1.2849
Na2Ge2Te,22.0406,20.6751,-1.3655
SrEr4Tl5,38.1667,39.9982,1.8316
ZrNbS3,81.9612,62.5102,-19.451
LiBe2W,15.9465,15.1623,-0.7842
Zr(BeCu)2,24.3115,20.4682,-3.8433
Ac2PmSn3Ir4,38.3907,40.6301,2.2394
YMn,49.0781,7.522,-41.5561
YMn3,78.3648,64.0631,-14.3017
La2Si3IrPt12,69.8958,50.7178,-19.178
NaLa2(SiPt4)3,68.7928,49.0193,-19.7735
YMn3,78.2486,64.0631,-14.1855
KTlSn,25.0975,27.1408,2.0432
Sc2InFe,29.4815,23.7612,-5.7203
Tl3PbAu8,48.6204,49.5463,0.9259
BaLiSn2,8.8811,10.2989,1.4178
La2Th(SiPt4)3,70.9602,51.8885,-19.0716
RbNd2PtO5,7.5026,7.4985,-0.004
YZr2Be,56.2444,46.9313,-9.3131
La2CoCl,22.4732,18.6397,-3.8335
Y(ZrBe)2,39.1446,34.0975,-5.0472
K2TcPt,48.6588,40.9108,-7.748
InFeSe2,32.1901,24.5922,-7.5979
LaHfTaO6,30.4961,25.4052,-5.0909
YMn2,71.1582,59.3992,-11.759
FePPt,52.4982,41.8215,-10.6767
ZnGeMo,5.5881,10.0098,4.4218
Cs2CaPaO4,24.1208,24.5624,0.4417
SmPd7Au12,36.1584,37.3113,1.1529
KAl2Zn,6.5954,7.3536,0.7582
Os3WI,91.5471,78.2559,-13.2912
Hf2TlCu,86.3683,62.6685,-23.6998
Sm3PdAu4,34.4653,36.686,2.2207
Sn3MoI,34.3305,27.3672,-6.9633
AcWBrO4,10.3286,12.8951,2.5665
ReSi2Au,29.9616,28.8369,-1.1247
ReSiAu2,37.8838,38.5329,0.6491
Sr2AlIn3Ga4,12.774,13.0287,0.2547
Sm2Pd8Au3,25.3206,26.6789,1.3583
Nd2Si2Ge,0.1182,2.4275,2.3093
La2TaSi4Pt3,45.8135,33.4481,-12.3654
SnMoRu,38.5179,29.9614,-8.5565
Sr2AgPd2Au5,28.8043,29.9708,1.1665
Pu2MnPt,83.2309,72.2964,-10.9345
KUCd2O6,4.4972,6.8859,2.3887
Cs2HfCr,52.0143,39.9977,-12.0167
YMn6,87.8318,70.8253,-17.0065
La2Si3NiPt12,67.7446,48.5382,-19.2064
Pu6SiGe,56.7852,56.6567,-0.1285
YMn,49.6192,7.522,-42.0972
Li2Ta2RhSe6,36.7686,30.0062,-6.7624
Hg(SbPb)2,39.018,36.461,-2.5569
NiAg2,23.1775,20.106,-3.0715
CaPrSc,7.493,5.3981,-2.0949
CaPm3Se4,42.6296,36.1713,-6.4583
CoAgSb,29.3494,24.9867,-4.3627
YMn,49.2108,7.522,-41.6888
Mg2AlReO6,10.7267,10.2016,-0.5251
SnMo3W,36.1768,30.9794,-5.1974
Os2WI,93.626,80.5951,-13.0309
Ba(Na2Si)2,18.2246,14.2663,-3.9583
SiNiW2,26.3482,27.1493,0.8011
RbTcNi,28.9669,25.2969,-3.6701
CaPuPbAu,43.7603,45.7817,2.0213
KTc(PbO3)2,20.2966,19.2985,-0.9981
Zr(CoNi)2,47.3651,38.391,-8.9741
CdMoW,26.0438,29.057,3.0132
U2Al9Cu,14.5516,15.7714,1.2199
Ho5Tc,39.0325,38.9254,-0.1071
LaZn(SiPt)2,44.2706,31.9092,-12.3614
Al2CuTc,29.194,25.0023,-4.1917
SmPd7Au3,26.4051,27.7037,1.2986
Al2CuTc,29.0666,25.0023,-4.0642
AlCuTc3,60.565,49.4296,-11.1354
Pa2Co4Ge3Pt,27.114,26.7502,-0.3638
Sm(Pd2Au)2,26.7677,28.8767,2.109
ZnTeW3,35.5241,36.4433,0.9192
HfTcW2,78.3698,67.3654,-11.0044
HfTc2W,91.5998,75.3095,-16.2903
Sm(PdAu2)4,36.2255,37.959,1.7335
Tc2AsPb,62.3292,56.1926,-6.1366
SmSnPdAu,29.9131,29.8167,-0.0964
TcNiRh,41.3306,34.8355,-6.4952
ZrCu2Ag,35.8681,31.5177,-4.3505
NiRu2Pt,32.0447,28.9947,-3.0499
SmBiPdAu,35.5441,38.2888,2.7447
Ce2MnZn,39.2576,35.9219,-3.3357
BaRe2Sn,32.3779,30.6759,-1.702
CsBeRhN2,34.7243,27.2803,-7.444
RbNb2Ag,75.938,59.4613,-16.4767
LiGdSn,1.5452,5.9312,4.3859
Mg2MnAsO6,29.4113,26.9386,-2.4727
Gd2Al2I,10.5338,12.5427,2.009
Sm2Ga4PdAu3,27.8617,27.0409,-0.8208
Mg2MnNbO6,41.2075,36.9138,-4.2937
PrGdO,13.7918,12.3184,-1.4734
Bi2AsPt2,54.6903,46.1682,-8.5221
TlReNi4,32.4934,26.3598,-6.1336
Rb(AlRh)2,20.9773,15.9434,-5.0339
Cu3AsOs,15.6472,16.9938,1.3466
Yb3Pd2Ru,25.6202,27.891,2.2708
Ca2YMn,36.0998,29.1975,-6.9023
CuNiBr,13.0601,12.9072,-0.153
NaLi2YP2,19.6512,14.8335,-4.8176
TaIn2Sb,31.0577,30.9913,-0.0663
Tl3AgTe3,41.1932,39.6992,-1.494
TaIn2Sb,30.7463,30.9913,0.245
Tb3Tl3Ag,33.681,35.4889,1.808
TaIn2Sb,30.6275,30.9913,0.3638
MoOsO2,22.3957,22.9285,0.5328
PrSmZnAu,19.7157,20.835,1.1192
Pm2PuBi3,46.8487,49.1418,2.2931
TaInSb2,36.8129,34.5103,-2.3027
AcMgZnPd3,17.0076,18.9921,1.9845
PrSmGeAu,19.9235,21.5281,1.6046
Tl2IrAu,48.6034,50.091,1.4876
PrSmGeAu,19.845,21.5281,1.6831
PrSmPtAu,39.7321,33.9263,-5.8057
Tb3AgPb3,33.5905,35.8122,2.2217
Tl(NiRh)2,27.0505,24.6296,-2.4209
CuNiBr,12.789,12.9072,0.1182
SrMo2Pb,25.1559,27.277,2.1211
CaY2Mn,38.3023,32.5138,-5.7885
NdSbPt4,70.6079,53.273,-17.3349
PrSm2Bi,24.5922,26.9808,2.3886
As2PbWSe,46.4826,43.2326,-3.25
Tm3AgSn3,21.3223,23.8314,2.5091
Tm2ThZr,56.6186,55.5207,-1.098
CuNiBr4,11.7221,11.6558,-0.0662
CaY2Mn,38.3296,32.5138,-5.8158
Na2PaCoO6,11.1825,12.1713,0.9888
Ba(RuRh)2,44.1439,34.4233,-9.7206
TlNi4Ru,15.5783,17.8109,2.2326
Ce2Nd2CuSi4,18.5279,16.3891,-2.1388
Ac2SnPt,53.473,50.4071,-3.0659
CaYMn,46.2943,37.1695,-9.1249
Tl(NiRu)2,13.5697,18.2449,4.6752
Na2PuInO6,8.6734,10.1861,1.5127
NdTl(TeO3)2,10.4818,10.1688,-0.313
ZrCuMo2,38.1992,33.2527,-4.9464
Gd2RuRh,41.4847,37.1734,-4.3112
LiPr2(SmAu2)2,26.3337,26.7962,0.4624
AcTbNd2Ho,29.2635,31.7028,2.4393
ZnP2CS,28.9794,23.8434,-5.136
Ca2YMn2,49.0449,39.3548,-9.6901
CaYMn3,68.5251,53.8238,-14.7013
BaY2Be,35.3726,28.9846,-6.3881
CaAsRu,13.6298,13.5181,-0.1117
Cs2NdPtO4,14.0593,13.8591,-0.2002
K2MnPb,44.4795,38.8285,-5.651
Cs(CuBi)2,26.5325,28.907,2.3746
Tl6Hg2PdAu,36.9334,37.7842,0.8508
NaAcGePt,46.5719,40.9945,-5.5773
PrSmGaAu,20.4774,22.1635,1.6861
BaPb3Au,40.6451,41.6194,0.9743
RbAlV3,80.6833,61.7567,-18.9266
SmGa2CuAu5,32.2086,32.4527,0.2442
ZnSn4Ir,20.5017,20.0219,-0.4798
Ba2CaNpS6,33.882,26.8793,-7.0027
Ca2PCS,36.8057,27.0777,-9.7281
CaIn5Ir,25.0604,23.1902,-1.8702
TiGeAu,28.6046,22.9161,-5.6885
ZnCd(GeS3)2,34.2325,25.5644,-8.6681
CaPmNdTh,30.1686,32.896,2.7274
Ac2GaPt7,75.6954,58.2945,-17.4009
KZrMo4,29.4366,28.955,-0.4816
Ti(GeAu)2,28.6654,25.7369,-2.9284
Nd3Al3Cd,10.5704,13.2362,2.6658
Np2OsPd,49.9721,52.2623,2.2902
Pm2SmCuTe5,26.2865,27.1492,0.8626
LiBeAu,17.0938,17.7174,0.6236
AgPt2C,62.4879,45.1483,-17.3396
Ce2YCuSe5,32.7723,27.1657,-5.6066
MoP3Ir,26.9772,20.6545,-6.3227
Tm2MnCoO6,25.8129,25.6684,-0.1445
Zr2ScMnS6,66.6548,52.5466,-14.1082
ZrNi2W,41.0539,36.5268,-4.5271
RbAlGa2,5.4228,6.6956,1.2728
LiBeAu2,24.4338,24.835,0.4013
Zn2FeW,18.0464,16.7051,-1.3414
AcTm2AlPt4,59.7323,48.5676,-11.1647
Ba2TlCu,12.5456,14.3949,1.8493
Sr3PuAs3,22.3542,18.8471,-3.5071
Zn2CoMo,16.1888,13.1738,-3.015
ZnFe4W,10.2357,10.8901,0.6545
HoZrMnCu,58.2159,51.1184,-7.0975
CaSiRu,21.9799,17.0366,-4.9433
Ca2YMn,36.1533,29.1975,-6.9559
Na3Tm2BiSe6,38.5441,32.7829,-5.7612
Ge2AsOs,18.1155,20.6391,2.5236
Ac2TmMgO6,6.3424,10.4367,4.0943
Cu(ReRh)2,28.8229,28.6042,-0.2187
CaSi3Ru,19.3278,13.3455,-5.9823
Ho3BI3,7.5523,12.6907,5.1384
Li2SiAgTe4,25.964,23.375,-2.589
La5RuAu2N,44.9997,37.5578,-7.442
Er2MgVO6,16.8342,15.9256,-0.9087
CaSi2Ru3,23.329,17.39,-5.939
GaBi3Pb,45.7683,46.3925,0.6242
Cs2PrBr6,11.5044,12.3619,0.8575
CsPrBi,20.4802,22.5971,2.1169
RbNb2Si,70.5964,54.8349,-15.7615
YMn,57.09,7.522,-49.568
ScGeSbRh2,42.0343,30.3193,-11.7151
ZrPtC2,69.8486,52.159,-17.6895
MoAuCl4,20.0668,15.3241,-4.7428
Rb3InP,11.4832,8.7068,-2.7763
Rb2InP2,13.6504,9.1949,-4.4555
CaIrRu2,21.4179,22.1242,0.7063
Ca2IrRu,25.139,22.0848,-3.0542
Ac3(NiPt2)2,55.78,47.8943,-7.8857
KTlAs2,20.9852,21.5548,0.5696
RbIn3P,18.6815,16.2706,-2.4109
YIn2Si,32.2814,30.4342,-1.8473
PmNpMn2O6,64.4126,59.0523,-5.3603
Be2InFe,17.2746,13.661,-3.6136
BeIn2Fe,19.7554,16.6599,-3.0955
Na2PuAsO6,11.8637,11.5897,-0.274
Ce4PS3,32.6894,29.4972,-3.1922
Be4InFe,15.2646,12.4718,-2.7927
SmDyGeAu,26.5005,29.3632,2.8627
ReAgPb2,44.9923,44.628,-0.3642
ZrSi3,29.4365,22.1491,-7.2874
Ac2ZnPd5Pt2,34.3731,31.2905,-3.0826
MnNi(TeO3)2,33.1006,29.1609,-3.9397
Th4Sn2C,51.9416,50.86,-1.0816
ErMn2SnO6,79.1083,68.2996,-10.8087
Ac2ThPt2,67.6043,60.1655,-7.4388
CaIrRu2,28.0612,22.1242,-5.937
Ac(BPt4)2,71.0253,52.8068,-18.2184
HfMn2TeO6,74.5436,63.2622,-11.2814
YMn,49.6702,7.522,-42.1482
Ac4PrPt4,66.8879,56.5251,-10.3628
FeAs2Au,31.7672,30.0841,-1.683
La2ZrMnCu,61.9443,49.1065,-12.8378
PbC,24.9654,21.73,-3.2354
AcPrPt10,78.837,57.8227,-21.0143
Ac4ThPt4,74.7276,65.2773,-9.4503
ZnReIr2,38.8579,40.6174,1.7595
BaY2F8,16.1338,16.0387,-0.0951
Sc2Nb(IrRh2)3,53.9327,40.0182,-13.9145
ErZrPS,46.2607,45.2641,-0.9966
SmSnAu4,38.7614,40.4993,1.7379
Ti2GeRu,9.7719,12.4197,2.6478
CsSi3C,27.3571,18.7761,-8.581
AcPrPt2,58.6892,42.1073,-16.5819
LuInRu4,19.5912,22.3322,2.741
Nd2MnCuO6,24.9326,24.7568,-0.1758
LiBeFe2,26.2642,21.0359,-5.2283
YMg4Ni,29.6359,26.82,-2.8159
CaY2PuAs4,19.3428,20.0398,0.697
TlCdP2,16.2643,18.6957,2.4314
HfNp2ScAs4,46.6001,40.1946,-6.4055
LiLu2Os,27.1593,30.1827,3.0233
AcMn(FeO3)2,39.8667,35.1699,-4.6967
Ac5Tl,62.1517,63.7002,1.5486
Na2UInO6,8.3832,9.9839,1.6007
BeFeSb,31.4716,25.1268,-6.3448
LuBi3,44.8581,46.3911,1.533
BaNi2Sb,17.4302,13.1682,-4.2619
AcPr3Pt2,31.6248,25.493,-6.1318
CoSiOs2,19.496,23.6851,4.1891
FeRu2Br,28.5686,20.8713,-7.6973
Sm4AuS5,41.4777,35.0242,-6.4535
SrInRu,16.8436,18.6985,1.8549
SrPm5Pb8,39.4651,40.8541,1.3889
NaPm2SnO6,19.8224,17.5173,-2.3051
NaPr2SnO6,20.2705,14.5229,-5.7476
Pr2Ni2Ir,14.3398,15.0518,0.712
NaTb2WO6,11.5313,13.3798,1.8485
CsNa(TcO3)2,16.1781,14.5262,-1.6519
SiAgPt2,56.2496,41.0857,-15.1639
PPd3C,24.6279,20.6098,-4.0181
InTcP2,30.4501,27.1803,-3.2698
InTcP2,30.0505,27.1803,-2.8702
InReSn2,26.0664,28.9454,2.8791
Be3CdFe,16.4703,12.6304,-3.8399
Gd3SnRu,24.6448,26.1093,1.4646
Rb3Y(NbS4)2,52.827,38.971,-13.856
MnCdCo,43.3636,36.7748,-6.5888
Sm4Rh2Au,34.4351,33.0882,-1.347
ScTc2MoRh,82.9393,67.4631,-15.4762
Ac3AgPb3,49.939,51.6428,1.7038
TiTe2Pt,44.5129,38.8269,-5.686
TiTePt,38.4972,32.5243,-5.9729
Ti2Si2Bi,12.5073,13.2702,0.7629
LuInRu,22.8155,26.3053,3.4898
SmGdOs4,40.2124,41.9939,1.7815
Lu2InRu,25.4847,28.7498,3.2651
CdTe2P,26.964,26.2178,-0.7462
Cd2MoP,22.9785,19.5767,-3.4018
Cd2Pb,30.3745,31.573,1.1985
Cd3MoP,23.4305,20.0757,-3.3547
LiBeCl2,6.905,7.0324,0.1274
LiBeCr,5.4805,4.7501,-0.7303
CdMo2P,21.877,19.9367,-1.9403
Na2EuPt,42.1502,34.2908,-7.8594
Ce3AgSn3,18.3225,20.5413,2.2187
Pm3AgSn3,18.46,20.9298,2.4698
Tb3AgSn3,19.3649,21.9087,2.5438
Ca2BeFe,26.0919,19.2118,-6.8801
Sr2CoSi3,22.3773,14.5282,-7.8491
CdCo2W,18.8057,20.959,2.1533
CdCoW2,20.8004,25.5699,4.7695
K5Sr3I12,9.1028,9.7114,0.6085
Mn2IrRu,68.89,57.1947,-11.6953
CdInSe2,33.7552,29.408,-4.3472
Te(Mo2Ru)2,24.813,22.5563,-2.2566
EuYPd,31.1628,28.5705,-2.5923
Ce4Pt3Rh,51.1492,40.7909,-10.3583
LaMgAl2Pd5,15.9003,15.6891,-0.2112
Ce4Pt2Rh,46.1739,38.1068,-8.0671
Sn4PSe2,26.2212,23.741,-2.4802
Nd2AgTe,29.9385,29.3771,-0.5614
Lu2ZrTl,53.9093,52.1835,-1.7258
RbIn2TeS6,38.3517,28.9715,-9.3802
MnFe2Ru,49.6516,38.1509,-11.5007
AcSnIO2,51.7468,43.3554,-8.3914
LiBeCo,11.1276,7.353,-3.7746
Cs2NaAsO4,4.3266,6.2954,1.9687
Cs2CrP,34.5974,32.046,-2.5514
EuYPd2,27.494,26.2615,-1.2324
SmY4Th3Sb8,38.7708,37.0893,-1.6815
TaBe7,13.379,10.7722,-2.6068
Ac2TlSbS6,50.3226,41.6815,-8.6411
CaNiI2,17.2962,15.9817,-1.3146
Tl2Te4AsAu,40.8807,40.1615,-0.7192
KNdAg2,24.841,21.8765,-2.9645
Dy2YHoHg2,18.0059,18.4618,0.4559
GdErGa2,18.3051,20.7599,2.4549
HfRuW2,69.13,57.4323,-11.6977
KNdAg,19.6449,19.7088,0.0639
Y4Er5Sc,20.7633,22.8975,2.1343
Zr2TiV,84.7773,69.2401,-15.5372
AcSnTeO2,55.7007,49.5866,-6.1141
CaNd2Sm,19.9206,21.7763,1.8557
Er2In8Co,20.0484,21.2857,1.2373
ThMgTi,22.7355,25.5563,2.8208
YbCuPb,20.6642,24.7703,4.106
Na2PaMnO6,38.4456,35.6826,-2.763
Fe2AgP,25.2063,21.4004,-3.8058
Na2ThPbO6,26.2764,23.3544,-2.9221
Na2IrRhO6,13.9802,12.2953,-1.6849
CdCoMo,13.8758,16.7025,2.8267
Ac2PtF,55.1218,50.9285,-4.1933
Fe2AgP,25.2041,21.4004,-3.8037
Na2PmIrO6,4.5339,6.8184,2.2845
CdCoIr2,28.3802,31.5466,3.1663
Na2PmNpO6,4.824,7.5743,2.7503
Zr2AgSn,56.2748,51.1056,-5.1693
RbNa2OsO6,3.6183,5.451,1.8327
CrPb2,32.8646,35.8304,2.9659
Pr(NdAs)3,0.0,0.0,0.0
TiBiTe2I,33.3847,32.672,-0.7128
Cs2NaTeO4,10.1166,10.0674,-0.0492
Rb(SnAs)3,21.0211,19.4007,-1.6204
ZrAgSn3,39.0544,34.9222,-4.1321
RhPb6,47.8412,46.9477,-0.8935
Be3Te,8.1813,11.1074,2.9261
AcPm2(AgSn)2,30.7255,30.8766,0.1512
La2CoCu,44.7261,34.8479,-9.8782
Sm2Si5Pt3,31.8291,22.9863,-8.8428
Tb3Y7Er,18.9312,20.095,1.1638
BePb,26.9846,29.3488,2.3642
Be3Te,7.691,11.1074,3.4164
Y2(MgIn)3,13.221,13.0749,-0.1461
Na2TmUO6,5.3376,8.0856,2.748
TmTh2ZrP4,32.9341,33.2852,0.3511
Gd2YTl,30.9037,33.4531,2.5493
La2Co2Cl,17.165,15.3432,-1.8217
Ce2Sm2Si4Pt,27.2218,22.8938,-4.328
Be2Pb,14.3956,17.1134,2.7178
ZnInBr2,12.3263,13.5128,1.1864
Fe2AgP,25.1664,21.4004,-3.7659
RbPm2PbO5,3.3946,6.4564,3.0618
ZnIn2Br,14.6197,15.3567,0.7371
PaAlCo,41.7975,36.19,-5.6074
Cd(CoRe)2,38.2837,35.8488,-2.4349
ZnInBr2,12.4009,13.5128,1.1119
SiOsAu2,37.932,38.4804,0.5484
Zn2CdCo2,17.1594,11.1536,-6.0058
NaGe(AsO3)2,4.6806,5.352,0.6713
NaGe(TeO3)2,7.3338,6.2884,-1.0454
CdFeOs2,35.5304,32.7657,-2.7647
Ga2PRu2,11.5474,11.8574,0.31
RbSiPd2,8.9371,8.9513,0.0142
BaSi2Ir,18.8685,16.781,-2.0875
ZrCdOs,32.0324,36.7282,4.6958
KHf,50.9786,32.6004,-18.3782
ScCdCu4,18.785,17.0418,-1.7432
Cd2CuRu,13.3403,15.6172,2.2769
MoAs2C,18.3156,16.3905,-1.9251