Formula,E_hull_DFT (eV/atom),E_hull_ML (eV/atom),Delta (ML - DFT)
CaY2HoS4,36.5062,28.0041,-8.5021
Be2NiCl6,-0.0,0.2742,0.2742
Nd3ErBi4,39.3159,41.0458,1.73
LaSm6Tm,29.0753,28.2654,-0.8099
AgMoBr3,16.4098,15.5967,-0.8131
YSc(BC)6,56.064,41.6032,-14.4608
SrCa2(HN)2,5.6628,4.466,-1.1967
Ce2AlAu6,36.8158,37.9826,1.1668
TlFe2Pb,31.2025,30.2308,-0.9717
Th2AlAu6,45.9556,47.2169,1.2613
SiBPb3,35.516,34.5787,-0.9373
Zr(ScAl3)2,14.6159,13.3097,-1.3062
Ca2NpN,20.1685,22.491,2.3225
CrSiMo,13.2731,13.8161,0.543
CdReW2,63.6328,59.2556,-4.3771
Hf2Be6Nb,47.5027,37.257,-10.2457
ZnInO2,23.0614,19.4706,-3.5908
CdReW2,63.7079,59.2556,-4.4523
Tm(Be3Nb)2,40.5728,32.5856,-7.9872
PrY3Ag2,16.873,16.6041,-0.2689
Re3AsRh,37.5426,36.3211,-1.2216
Na(IO2)2,26.1346,20.6262,-5.5083
Sb2PbSe,47.8437,40.9573,-6.8864
Sr2PRh2,19.68,16.2137,-3.4663
OsRhAu,46.9073,44.6789,-2.2284
Pu3HgN,43.7552,44.7505,0.9952
Pu2GaN,28.0597,32.8258,4.7662
Mo(RhBr)2,23.2842,17.7562,-5.528
CdCu2SbSe4,33.5509,27.9087,-5.6422
Be2PbI6,26.3443,28.0295,1.6852
Ac8NiPt3Se4,60.0894,53.2843,-6.8052
CdCu2SbSe,25.6796,22.1155,-3.5641
Be2HgI6,21.0355,23.0704,2.0349
Y3(Tm2Mg)2,20.1477,20.2609,0.1132
Y(ZrRh)2,53.0602,41.9201,-11.1401
Sm2ThPd2,24.2394,28.1493,3.9099
Ta4TiOs,32.1033,36.9125,4.8091
CrSiMo2,13.8174,14.9374,1.12
Be6Co2Ni,12.9758,9.7966,-3.1793
Hf2TaBe6,43.4652,32.0171,-11.448
Be2SnAu6,35.1976,34.7809,-0.4166
SrLa2Pm,35.4774,28.4376,-7.0398
Sc(Be3Nb)2,35.4124,28.8767,-6.5357
Ta(Be3Nb)2,42.9631,35.0918,-7.8714
Sm3Si7Ru2,19.1367,14.6147,-4.5221
Be6Fe2Si,18.5503,13.1001,-5.4503
Sm(TmPd)2,18.1188,22.2186,4.0999
BaNaZn2Ir,19.8575,16.7479,-3.1096
TaTiW4,32.4776,38.0084,5.5308
CdMoBr2,15.0909,16.7097,1.6188
CrB2Ru,0.0,2.0984,2.0984
Hf(ZrBe3)2,37.6543,30.3096,-7.3447
CeTh,45.9231,49.9616,4.0385
MoAsBr,12.6632,14.1659,1.5026
Be(AgAu3)2,38.7799,38.3785,-0.4013
Be(Al3Cr)2,9.5381,8.0199,-1.5182
Hf3BeI,99.0181,74.7685,-24.2496
TmVN2,30.4624,26.3439,-4.1185
HfCrFe,56.7259,39.7251,-17.0009
Ba2YHoS4,44.0226,34.4916,-9.531
Cs(MgGe)2,7.0707,9.2668,2.1961
YHo2ThS4,43.5397,37.2709,-6.2688
PaVSb,80.2598,69.2837,-10.9761
TiTe4Pt,43.3975,37.8588,-5.5387
Tb(PdPt)2,41.7827,32.959,-8.8237
TiTcW4,41.7738,44.9603,3.1865
AcPd2Pt,40.7913,37.3699,-3.4214
CaAc2SnPt6,69.0147,52.0841,-16.9307
Tl2AgMo,34.3059,34.5208,0.2149
MgPaBi2N,42.7225,43.3061,0.5837
Cs2SnPd2,22.9949,22.5567,-0.4382
LiIr,22.1628,25.359,3.1962
Pa(SnPd)2,27.0789,25.5183,-1.5606
LaMoBr2,17.5325,14.812,-2.7205
Na6SrLi2,18.0532,14.9969,-3.0562
Tb2Pd2Au,20.8482,24.8582,4.01
Lu2CdPb,34.4364,36.7503,2.3138
Be(PbI3)2,30.788,32.5025,1.7145
Ag2MoAs,22.7717,21.1662,-1.6055
AcCeSnPt,49.2715,44.4883,-4.7833
MoAsBr2,12.2346,13.7294,1.4947
Sr(HoS2)2,34.4286,19.2546,-15.174
BaPr2Br6,1.6382,1.4285,-0.2097
AgMoAs2,16.9024,16.964,0.0616
TiVPt4,81.3211,57.6932,-23.6279
LuScMnFe,55.6308,49.1477,-6.4831
YAlZn2Ag5,27.7751,22.2786,-5.4966
Ru2W,39.7919,37.1197,-2.6722
LiThInI6,21.0006,22.6842,1.6836
CsRbNb2,75.4229,61.9291,-13.4938
CrSiOs2,27.0389,28.9889,1.95
RbTl(ZnIn2)2,18.4532,18.9654,0.5122
ScH8Pd3Ru2,7.585,7.9781,0.3931
Th2TePd2,34.5099,38.0806,3.5707
LiAlTc2,50.1684,43.1181,-7.0502
SiAs2,20.9754,18.7116,-2.2637
YZrRh2,51.9918,41.2018,-10.7899
Li2AlTc2,35.2654,30.8982,-4.3673
SmY2Ho4Sc,23.7002,24.082,0.3818
K3(CuI2)2,12.2078,12.3167,0.1089
LiCeHo,14.5693,18.2253,3.656
Ca2AlSi2,16.3695,13.171,-3.1985
Cd2Ag2Pd,23.6088,22.121,-1.4878
CaAl2Si,16.7756,14.6813,-2.0944
NaCa(AlSi)2,24.2601,19.7588,-4.5013
Hf2RhI,83.3574,60.3021,-23.0553
Sc(CdPb)2,26.7398,28.7999,2.0601
Y(CuGe)2,14.4076,13.8727,-0.5349
La3AsPb,42.8683,32.6159,-10.2524
MoBrF3,11.9281,11.1634,-0.7647
CsNd(SO4)2,12.9771,11.7234,-1.2537
HgMoBr2,6.5561,7.9464,1.3903
La2Y3Os2,34.2104,29.8597,-4.3507
Ti4HgMo,5.874,9.0961,3.2221
Re2Rh,43.1332,42.4572,-0.6759
AlCuSi,8.85,16.0915,7.2415
Sr2Tl2As,28.5726,27.3365,-1.2362
Rb2Ca2W,10.8635,9.689,-1.1745
NiSbPb3,46.6805,43.5108,-3.1698
GaTcBi2,53.4003,51.7411,-1.6592
ZrTiNb4,113.0438,91.6751,-21.3687
RbTlZn3,15.4292,15.7214,0.2922
Rb2TlZn,15.6023,15.4947,-0.1076
Li2TaP,15.7273,15.1836,-0.5437
Tl2PdAu2,39.4325,41.2768,1.8443
TmSc2PaBi4,40.2973,42.5009,2.2036
CdBi3N,38.6121,38.8308,0.2188
Ba2Te2Br,13.6186,14.167,0.5485
CrSiPb2,33.1155,32.2556,-0.8599
LaZrBr,53.8802,41.3718,-12.5085
Cd2TcTe,43.7949,39.8356,-3.9593
Be3Ir,5.3198,9.0196,3.6998
Ca2InAsI,12.7382,13.1716,0.4334
TiTc2N,38.1486,37.7185,-0.4301
AlMoPt2,46.8824,32.8361,-14.0463
Ba2TeBr,11.7999,14.3312,2.5313
HfTi4Tl,35.819,31.2753,-4.5437
CuSbAs2,18.3713,17.1016,-1.2697
LiRe2Ir,31.4081,34.7358,3.3277
YHo2Er4Sc,25.2895,26.1929,0.9034
LiTaRh,21.7693,23.4797,1.7104
KTcSe,52.3814,44.4244,-7.957
Ac2CdCu4Ge3,19.8854,21.5662,1.6809
Y2ZrRh,43.4474,36.5782,-6.8692
YCoTe2I,41.1533,35.5275,-5.6258
Sb3MoRu,35.5604,28.8974,-6.663
Pr2GdBi,18.1645,20.3666,2.2022
Ac2PdI2,37.4252,40.2303,2.8051
TlAsPb2,38.2745,40.5214,2.2469
GdBiAu,43.1513,45.5948,2.4435
BaTcN3,10.9873,10.6711,-0.3162
TlCr3Sb,25.8339,22.9382,-2.8957
LaTaMo2,30.0604,28.9272,-1.1332
LaTaMo2,30.0578,28.9272,-1.1306
CsLiGe2,7.9389,9.4073,1.4683
EuZnTeO,25.9916,22.9549,-3.0367
BaSr2PtO5,11.4571,9.7058,-1.7513
Ta4TiNb,48.9519,48.8616,-0.0904
Ti4TcPd,21.3877,22.3205,0.9328
Nb2AsN,64.6606,54.7905,-9.8701
Th2PdPt2,57.1605,49.285,-7.8755
LaTa2Mo,35.4021,35.2808,-0.1213
TiPd4Au,18.6034,18.6414,0.038
TiNb4Sb,102.635,84.7244,-17.9106
Be7Pt,11.0474,8.9392,-2.1082
Sm4P3,14.5024,18.9188,4.4163
Be7Re,5.0253,7.2857,2.2604
VAgI4,38.7078,34.0199,-4.6879
Y2ZrRh,43.552,36.5782,-6.9738
Tb2PdPt2,29.8005,22.8222,-6.9783
Sn2PdPt2,49.6147,36.649,-12.9656
Cd(BiTe)2,42.716,41.8947,-0.8213
Sr2BeAu6,36.0992,35.7663,-0.3329
U6Si,62.2556,63.0048,0.7492
CrReSi,21.421,22.8229,1.4019
Re2OsPb,44.6039,47.9898,3.3859
CrReSi,21.6518,22.8229,1.1711
Hf2CrTc,97.0831,74.2057,-22.8774
HfCr3Tc,53.7089,41.7548,-11.9541
Re2OsPb,44.1968,47.9898,3.793
Ac2Zn4Pt3Pb,47.4281,39.5043,-7.9238
Cs(HgPd)2,9.2326,11.052,1.8194
AcTl4Pb,53.2105,54.5799,1.3694
Yb4P2O,24.3641,24.2019,-0.1622
BaSr2Pt,29.0205,22.9912,-6.0293
K2PdI4,18.1815,18.6208,0.4393
Tm4HgPb,29.0812,31.1351,2.0539
BaSc3Ag,9.5572,9.4608,-0.0964
AcCeEu2,36.6665,38.6589,1.9924
CrRe2Si,26.1666,27.5502,1.3836
AcCeEu,39.3641,42.054,2.6899
LaTcS2N,52.6182,39.6412,-12.977
Y5(HoSc)2,12.2688,12.0962,-0.1726
YScHgAu,25.103,24.2847,-0.8183
Ru3AuBr,27.4547,26.611,-0.8437
Zn2Sn2Pb,19.2966,20.9292,1.6326
PuVI4,48.0824,44.6327,-3.4498
CsRb2Ba,7.1281,6.9418,-0.1863
ZnFeSe2,28.1156,23.0198,-5.0958
Tm4IrPb,30.2368,33.5256,3.2888
Tm4IrPt,41.7538,38.6223,-3.1315
RbGaSi,5.2579,4.7006,-0.5573
CrRe2Si,26.25,27.5502,1.3002
Ac6CoIrPt2,61.2679,56.8387,-4.4292
AcPrPt2,52.1851,40.6559,-11.5292
Sr2AlSiPb,29.028,26.1861,-2.842
Ac6Co(PtI)2,55.3521,51.1924,-4.1597
BeNi3,4.5004,7.9381,3.4376
NaGd2O,19.904,20.7261,0.8221
Rb3PI6,16.6448,15.2776,-1.3673
CrSiRu,17.7012,15.8274,-1.8738
ZnFeSe2,28.1363,23.0198,-5.1166
CrSiRu,17.7928,15.8274,-1.9654
Y2C,34.2561,31.0371,-3.219
Ru2WSe,49.5567,34.4743,-15.0824
Ru2WSe,49.4376,34.4743,-14.9632
Ta2NiSe,31.9744,33.3442,1.3698
TbNi2Au,21.1974,23.8281,2.6307
PmSbC,37.0076,30.9356,-6.072
SrCrSi,28.1025,19.7326,-8.3699
Ac2PtPb,67.1329,62.4543,-4.6786
YHo(PaAs2)2,25.8556,28.8683,3.0127
Y3CS,31.0762,25.4807,-5.5955
Ac3PtPb,66.5755,62.3556,-4.2199
AlVF2,46.6336,34.8936,-11.74
Li2Si2P,12.7552,9.5302,-3.225
Hf(BeRu)2,27.9288,22.9982,-4.9306
Cs2Tl2Pd,33.49,34.6717,1.1817
Ac3PtPb2,59.2358,57.9851,-1.2507
Ta3AlN,12.0531,19.9505,7.8974
NpCrN3,19.9963,20.4688,0.4726
Ac2InPt6Pb,73.7308,56.9166,-16.8143
AcCdPt3Pb,62.2086,50.0381,-12.1705
Ac3IrPtPb,56.7627,55.3722,-1.3905
Pm2Hg2Au,18.7797,21.0916,2.3119
USbAuN,32.2389,35.0342,2.7953
YC3,59.7226,42.2356,-17.487
Sr6IrBr2,16.2317,14.9096,-1.322
Sr2GaSi,23.3191,18.652,-4.6671
Pr2NdPd2,3.9455,7.9284,3.9829
NdY(GaRu)2,17.9036,16.7517,-1.1519
YC,39.7723,9.9879,-29.7843
TaNiSe2,34.6793,34.0578,-0.6214
Ba2ZnSb,10.1129,10.302,0.1891
TmPuAu4,48.0088,49.9952,1.9863
Tm4TlRe,29.7384,34.0006,4.2621
TmPaAu4,47.2594,49.5771,2.3177
K2CdHg4,5.9072,5.7069,-0.2003
CrSiRu,17.5895,15.8274,-1.7621
Rb2AgTe2,20.6188,18.1319,-2.4869
Ba2Zn2Sb,11.7558,10.9599,-0.796
Rb2Ag2Te,19.0484,16.1541,-2.8944
TmThHg4,15.6685,17.318,1.6496
YC,0.0,9.9879,9.9879
BaZn2Sb,14.7457,13.4327,-1.3129
V4CrAu,87.3715,70.563,-16.8086
In4Ru2Au,22.8128,24.595,1.7822
KZr2W,62.5933,53.8448,-8.7485
GaSiTe2,27.0648,25.4406,-1.6241
AcLuPt2,68.1152,55.7802,-12.335
LuAlSn,9.9049,14.6151,4.7102
Li2Re,13.8303,16.7122,2.882
YC,48.3982,9.9879,-38.4102
NaYO2,19.1902,17.3727,-1.8174
SiGe2Ru,10.4404,10.7109,0.2705
TlIn5Ag3,27.1451,25.4904,-1.6548
V4CrGa,88.6616,70.1933,-18.4683
Ag2WBr6,29.8119,24.9712,-4.8407
Co2ReAu,26.1886,28.8455,2.6569
CsCdIn(MoO4)3,15.3112,13.757,-1.5542
Ag(SbBr3)2,27.6958,24.7378,-2.9581
RbHf3Rh,98.8182,69.4537,-29.3645
TaNiSe3,30.7449,26.7784,-3.9665
Na2YC,36.9466,29.256,-7.6906
Y2C2F,37.1761,27.6302,-9.5459
Cs3La(SeO4)3,10.9051,10.3637,-0.5414
TmTh(ScBi2)2,39.9981,42.1372,2.1391
TiMn2N,51.9551,43.9193,-8.0358
InMo3Br,18.0353,18.595,0.5597
Rb3HfRh,41.6431,28.6838,-12.9594
CrSiRu2,20.5218,16.8938,-3.6279
PmCd4Sb,24.2874,23.7156,-0.5718
Hf2InN,76.0329,57.977,-18.0559
Cs(WO3)4,0.0,2.5369,2.5369
HoSiAu,13.6877,16.9074,3.2197
LiIrRu,19.1382,19.1739,0.0357
Ti(TeRu)2,18.1894,19.8342,1.6448
LiI,7.6472,9.9765,2.3293
Ti8Rh2N3,9.9826,10.1262,0.1436
CuOs2Ru,27.4161,33.3739,5.9578
CrSiRu2,20.4869,16.8938,-3.5931
Pm(ErAu)2,30.1535,33.7864,3.633
SiPOsRuC,32.3596,28.7713,-3.5883
CuOsRu2,21.6833,25.2633,3.58
AcLuPt,61.815,54.6136,-7.2014
YCO4,15.8343,11.9155,-3.9188
SrZn3Ir,10.2239,10.6688,0.4449
CuOs3Ru,32.5954,33.8331,1.2377
Al2SiPd2,13.9333,14.4924,0.5591
Sr2Al4Ga3Cu,8.4024,7.9747,-0.4277
Co2NiN,71.0989,59.5075,-11.5914
GePPt5,65.4735,44.6411,-20.8324
BaSrAu,19.7788,21.844,2.0652
Ho(NbB3)2,34.3393,30.5543,-3.785
In2SiPb,27.0222,26.4297,-0.5925
LiRuRh,18.3686,14.5252,-3.8435
Ca2TiI2,12.1471,12.6969,0.5498
BaOsPb2,32.5349,39.213,6.6781
BaOsPb,32.5454,35.3485,2.8031
Os3RuC,42.7541,41.3401,-1.414
CrSiSb2,28.9772,22.8004,-6.1768
PmTh2UP4,28.5933,31.2446,2.6512
BaOsPb2,37.5404,39.213,1.6726
NaY,17.7163,16.5103,-1.206
Na2CaIrI,30.6507,25.2754,-5.3753
BaOs2Pb,34.8258,37.1009,2.2751
AcCd3Ag5,30.9344,27.9827,-2.9517
PuPaSe2N,36.2226,36.9422,0.7196
TaMnBe2,39.9125,34.3084,-5.6042
TiCdCuRh,20.2604,18.3591,-1.9013
PuThN,34.7218,39.3244,4.6025
La6Pm2Tm3,41.0779,32.6682,-8.4097
CrSiSe,24.9544,20.2698,-4.6846
Cs6Ge2PtO8,14.4946,13.1231,-1.3715
KGaSi,8.6535,9.6559,1.0025
K2CaCo,13.0595,10.6,-2.4595
Rb2Si2Sb,12.4844,8.0468,-4.4376
YC,41.2141,9.9879,-31.2262
La6CePm2Ho,41.4915,31.1515,-10.34
TlAg3Pb5,45.3825,43.8492,-1.5334
CrSiSe2,30.5422,24.3438,-6.1985
V4GaRe,93.6922,76.081,-17.6113
NaVSe2N,51.453,40.4876,-10.9655
Ac(PmIr)2,33.0205,38.0555,5.0351
CeTcN,39.1195,36.2886,-2.8309
YAg2SO6,20.587,18.6908,-1.8961
ZnFeTc2,50.4659,44.223,-6.2429
CdSbPb,36.112,34.6214,-1.4906
Ti2RuPb,12.8189,18.6794,5.8605
Cs4Ba(AsO3)6,0.0,1.4311,1.4311
V4GaTc,102.5325,82.1982,-20.3343
LaYInAg,29.8908,24.8115,-5.0793
TaMnBe2,39.7502,34.3084,-5.4418
V4GeAs,89.1134,70.416,-18.6973
Pm2Ir2Pb,30.4373,35.3432,4.9059
CrSiSe2,30.5492,24.3438,-6.2054
Ce(PdPt)2,41.4381,32.8024,-8.6357
AlRe2W,30.2967,35.6047,5.308
TaMnBe2,39.7538,34.3084,-5.4454
Ac2GeIrPt6,71.138,53.9806,-17.1574
SmCuPb,27.7902,30.275,2.4848
Rb3ZnCr,6.842,5.8867,-0.9553
BiRu3W,53.1056,42.0863,-11.0194
MnV4Os,109.0705,88.0671,-21.0034
Rb2ZnCr,5.2437,5.3521,0.1083
SrZr,23.6744,28.1853,4.5109
La6Sm2Tm3,41.1197,32.6194,-8.5004
AcPmIrPt,54.7079,50.0926,-4.6152
Ag3Bi5Pb,46.7588,45.1672,-1.5917
ReWS3,50.9913,41.8398,-9.1516
CrSiSe2,30.2966,24.3438,-5.9528
Ac2Al4Ir3Pt,35.2108,34.3328,-0.878
Pm2PaOs2,31.2662,40.9906,9.7244
V4OsRu,95.1644,77.6515,-17.513
V4SbMo,95.8301,75.6498,-20.1804
TaCoNi2Se,38.4321,29.7552,-8.6769
ZnFeTe2,25.3079,22.6611,-2.6468
Mo2IrBr,27.8217,24.9283,-2.8934
V4TcMo,94.0222,76.1571,-17.865
Pm2PtAu2,40.5001,38.2945,-2.2055
Hf(TaPd4)2,32.135,30.1122,-2.0228
Y2C,35.345,31.0371,-4.3079
CuI3,17.0782,18.1281,1.05
Y3C,34.9178,30.2113,-4.7065
DyNp2PaAs4,33.6448,36.0828,2.438
SmTaN2,14.5643,18.3282,3.7639
MnAgPb3,58.1189,53.3241,-4.7948
KBaI2,13.1758,14.3973,1.2215
SrSiIr,19.8035,17.3124,-2.4911
VGeAs2,33.9789,29.5148,-4.464
BeCu3Cl,9.4721,7.5974,-1.8747
La2CePrNd2,24.285,21.6364,-2.6486
V3GeAs,81.8039,64.2099,-17.5941
SiSb2Au,33.931,29.2109,-4.72
CsPt2Se,57.9697,42.021,-15.9487
V4GeAs3,62.4493,48.4201,-14.0291
VCuBr4,28.2742,24.3082,-3.966
ZnOsPt2,51.7818,40.6247,-11.1571
BaSr2Zr,31.7324,27.4295,-4.3029
Sr2CrSi,25.6184,18.141,-7.4774
KZn3Te,16.1713,15.3007,-0.8706
Ac2PmAu2,44.5543,47.9704,3.4161
MnRu2Au,44.9588,42.464,-2.4948
Pd(PbBr3)2,24.1684,22.2822,-1.8862
MnRuAu2,52.7724,49.681,-3.0914
Co2ReOs,23.6211,28.3109,4.6898
TaMn2Be,61.8961,52.889,-9.0071
SrZr,51.5651,28.1853,-23.3797
Ca3WI,16.3419,16.8486,0.5067
Ce2PrSm,17.6344,20.8054,3.1711
NaCaLa2Os,34.9482,27.4851,-7.4631
YC2,52.6217,39.2141,-13.4076
BaSrZr2,53.2134,44.4559,-8.7576
Ac3SnB2Pt9,67.3315,49.7144,-17.617
Tb2Pm2Sm,25.5735,29.1543,3.5809
Pm2SmTl2,31.3626,34.7496,3.3871
SrSe,30.2028,26.5381,-3.6647
HgSbPd2,17.3421,16.247,-1.0951
Li2ReIr,21.1811,25.6949,4.5138
LiScRe2,43.5038,38.9141,-4.5897
Pr2TmPd2,6.664,8.7771,2.1131
VCr4Mo,20.4023,18.9211,-1.4812
RuRhBr2,33.7963,28.4646,-5.3317
NaSiAu2,33.4897,31.6882,-1.8015
Zn2RuRh2,29.676,23.9044,-5.7715
Ta2MnBe,46.0652,42.9373,-3.1279
SiAgAu2,35.2953,33.0712,-2.2241
TaNiSeN2,26.2981,22.6335,-3.6646
Li2(AuI2)3,22.6838,23.043,0.3592
BaYMn2,72.9903,59.2816,-13.7086
Ta4Ga(Te3Se)2,51.054,44.1552,-6.8989
TiRh2N,18.4603,14.9329,-3.5274
SiI2,17.4763,15.9643,-1.512
Be2CuCl,10.1526,7.8176,-2.335
BeHgTe2,21.384,20.5962,-0.7878
SiAg2Au,31.3223,28.644,-2.6783
Tl2Bi2Sb,51.3483,50.2851,-1.0632
NaYC,39.3874,32.5461,-6.8413
TlReRu2,31.6574,34.6648,3.0074
Sr2SnS2,27.074,22.731,-4.343
NaGd2Ga,22.7239,23.7248,1.0009
RhPbBr2,38.4291,32.1424,-6.2866
Sc2Ti2Co,25.0265,20.4341,-4.5925
Ru2RhBr,39.7525,33.9255,-5.827
Sn(BiN)2,29.8475,29.6534,-0.1941
AuN,5.4369,8.7601,3.3232
Ru2RhBr,39.7603,33.9255,-5.8348
Cu2Ni,6.5825,9.3009,2.7185
Hf3Sc,109.0642,79.1648,-29.8995
CrSiTe2,27.6232,24.7691,-2.8542
RuRhBr,41.016,33.1011,-7.9149
CdAgOs,31.9848,31.5386,-0.4462
CdAgOs,31.2638,31.5386,0.2748
Sb(Au2N)2,34.3766,34.3693,-0.0073
MnPRuCN,56.7538,44.8363,-11.9175
CdAgOs2,34.6805,35.8481,1.1675
LiMo2Se,13.4723,15.1097,1.6375
MnPRuCN,56.4917,44.8363,-11.6554
Cd2AgOs,28.2817,28.4943,0.2127
NaCrSiBr2,25.7468,21.3014,-4.4453
Sr2ZnIn2Pd5,11.7346,14.2159,2.4813
Hf3(ZnAg)4,53.2958,40.6132,-12.6826
Sc2TaPSe,80.7315,64.9233,-15.8082
Ti5Fe2CuRh2,13.4423,11.1308,-2.3115
TmTiN3,0.0,4.6557,4.6557
VZn4Cu,27.8299,24.0687,-3.7612
Ca(YZr)2,43.9511,36.0957,-7.8553
Pr6Sn2C,2.1981,3.2928,1.0947
KPaPt4,72.3797,54.0314,-18.3483
HfFeTe2Au,55.9327,46.6248,-9.3078
TlCrSi,25.7827,25.1563,-0.6264
RbPu2Br6,22.3157,22.9532,0.6375
CrSiTe2,27.4039,24.7691,-2.6348
RbNd2Br6,11.6528,12.1933,0.5405
ZrTiRu2,35.3147,31.81,-3.5046
VGaI4,37.7593,33.7512,-4.0081
Li(NbSi)2,66.8733,53.9961,-12.8771
K2Ag2Br5,15.1429,13.7397,-1.4032
Re3Ni,39.852,34.5895,-5.2625
Pm(ThPt)2,58.9293,50.7891,-8.1402
YFeRh2,22.7993,17.9886,-4.8107
Pr2NiAg,9.4172,7.4888,-1.9284
Co2TeRu,17.9928,20.2743,2.2815
AgTe2,38.8739,35.2919,-3.5819
Ac2PmSm2,36.4568,41.3104,4.8537
Cu3NiPbSe4,30.0699,26.6259,-3.4441
Cu2SiW,17.9669,18.5147,0.5478
LiHg4,0.8323,1.1552,0.3229
ZnCo3N,35.8722,39.9076,4.0354
Hf2NbB6,47.1974,37.4248,-9.7727
TcMo2W,30.8447,35.6781,4.8334
Cu2SiW,17.7948,18.5147,0.7199
SrZr3,77.5735,62.495,-15.0785
LaTlPb2,51.5618,48.9884,-2.5735
Zn4Pt4Pb3,49.473,39.7893,-9.6838
Li2TlRe,23.518,24.8211,1.3031
PuTiRh4,18.0915,13.9481,-4.1434
Lu2TcRu,43.8337,42.8326,-1.0011
NiRu2Cl,11.1003,14.1803,3.08
Ta(B3Mo)2,7.4995,10.6759,3.1764
OsRu2Se,31.0512,26.9587,-4.0925
Ba2SrZr,28.486,23.8975,-4.5885
Gd3(SiNi)4,16.7946,14.3301,-2.4645
Np2AuN,46.8482,50.4755,3.6273
Y3Ag3PdO8,27.97,23.8738,-4.0962
CsSb(AsO4)2,12.0263,12.0381,0.0118
Nd(TmB3)2,9.4893,12.2165,2.7272
Tb2NdPd2,16.4353,20.6933,4.258
Pm(HfB3)2,34.4125,27.7685,-6.644
La2Ga2Ru,23.1802,16.5836,-6.5966
Sc3TiI,9.2818,10.5549,1.2731
InSnBi2,34.0652,36.6242,2.559
SiTcNiRh,40.3737,33.9225,-6.4512
NdMg(H4Rh)2,11.2728,9.0652,-2.2076
Pr(TmB3)2,6.2474,9.2074,2.96
CdCo2Rh,20.4098,18.781,-1.6288
MnSiNiRh,67.4129,56.3772,-11.0357
TlSbC3,58.192,43.4582,-14.7339
Y4C3,49.6821,39.2213,-10.4608
Ta2SiNi,27.7507,26.117,-1.6337
Cs3PO3F2,11.6763,9.6833,-1.993
Cs2Ga2As2O7,15.8277,15.0649,-0.7628
Ag(BiPd)2,35.0663,35.6964,0.6301
EuTlInPb,37.6001,39.4161,1.8161
Tm(ScB3)2,4.2147,6.67,2.4553
YThGaAg,30.1637,30.8864,0.7226
Ac6Tl3IrPt2,62.8427,59.6709,-3.1718
Tb2SmB6,8.6535,11.6806,3.0271
UGaNi,13.4579,20.0845,6.6266
KMnIr2,50.4933,46.9704,-3.5229
BeTlRh2,37.5257,31.465,-6.0607
YbCu2O3,1.5954,4.7944,3.199
Cu2SiW,17.9313,18.5147,0.5834
Ac3BiIrPt,56.8049,55.4625,-1.3424
Sm(ThB3)2,17.4701,20.4643,2.9941
NaLaTc,56.8676,44.8466,-12.021
TlInGa2,19.3685,21.9305,2.562
TaOsSe2,43.9908,41.1349,-2.8559
Tb2ThB6,13.2041,16.2858,3.0817
U2TaB6,19.8791,23.224,3.3449
Pr2TmPb2,19.9155,23.4292,3.5138
NiSbCl,24.4638,19.7841,-4.6797
Ta2VB6,32.6707,29.0266,-3.644
TiOsAu2N,51.9705,43.6308,-8.3397
Y3(SO)2,41.506,33.9256,-7.5804
Tl2InGa2,25.2638,26.9051,1.6413
Zn2CrSi,11.593,10.1323,-1.4606
Hf2TcB6,41.9963,33.1677,-8.8286
FeSe7,42.9284,33.8203,-9.1081
YHoHgPb,32.3837,30.8536,-1.5302
Ti2VB6,14.9209,15.0151,0.0942
ZrCrSi,41.128,33.3419,-7.7861
MoOsRu,29.0338,30.3467,1.3128
GdGe2Ir,24.9242,25.5138,0.5896
RbBiW3,40.116,39.1832,-0.9329
Pr2Si2Ni15,8.8499,7.9835,-0.8663
NaTm(CuBi)2,29.3493,30.5341,1.1849
Sm3Sc,20.0654,22.3229,2.2575
U3Au4,56.3157,58.7929,2.4772
Sc8Sn2Pb,17.7335,16.4773,-1.2562
Tm2InGa2,14.8516,17.8363,2.9847
YMn2H5,26.817,22.6707,-4.1463
ZrCrSi,40.8369,33.3419,-7.495
Ti4Rh2N,7.5239,7.601,0.0772
CsNaSr8(BO3)6,5.0869,5.4256,0.3387
U(B3W)2,16.3526,20.0333,3.6807
TbTm3Sb2,29.0244,27.9824,-1.042
Zr2CrSi,54.9796,44.08,-10.8996
Li2IrRh,23.3808,21.1528,-2.228
Si2PbAu2,31.764,30.7314,-1.0325
Pu(ZrB3)2,29.572,27.2657,-2.3063
Zn2FeOs,23.6143,21.2426,-2.3716
Na2TiTl2,33.4255,31.6127,-1.8128
Tl(InGa)6,16.9906,17.6681,0.6775
Zr(TcB3)2,31.5824,27.8647,-3.7178
Sm(ZrB3)2,24.3201,21.7167,-2.6033
Si2Pd,10.9774,7.4894,-3.488
CuTcSb,30.1529,25.6123,-4.5406
RbCoSb2,25.608,20.504,-5.104
YSF,9.2175,9.8811,0.6636
Li5Pr3Br12,3.4383,1.8074,-1.6309
Si2NiC,17.9189,13.0861,-4.8328
La(PaB3)2,20.6745,21.5157,0.8411
Co2OsRh,26.1248,25.7341,-0.3907
NpSi3,28.9686,24.8154,-4.1532
Np2Si2Ru2C,40.9413,37.2288,-3.7126
LaBePt,46.3037,32.0258,-14.2779
CuAgAu,25.0186,28.8893,3.8707
CaScSi2As,32.0599,26.4319,-5.628
Y(S3Cl)2,55.5263,46.0296,-9.4967
NaPr2PbO5,7.8885,5.0938,-2.7947
IO,0.0,31.3664,31.3664
Ba(Ac3Ho)2,49.7786,51.3856,1.607
Cu2(AgAu)3,31.1607,29.6531,-1.5076
YCS2Cl,67.7166,55.7389,-11.9777
NaEuTl,34.4055,33.7377,-0.6678
PaSnPb,42.0541,45.4199,3.3659
ScCo2AsRu,20.3351,17.2142,-3.1209
GaTc2C,55.9215,48.1194,-7.8021
Nb2PPd,75.8126,65.0121,-10.8005
Cs2Na2Pr4Ta2O13,8.733,4.851,-3.882
Np2Si,19.7483,27.3044,7.5561
YCO,39.7814,33.4536,-6.3278
SiOs2Au,30.1231,32.5032,2.3801
B(Ru3W)2,45.3542,34.1574,-11.1968
Ti4TlPb,20.575,23.3558,2.7809
Rb(GeSb)3,20.5821,15.6824,-4.8997
Cd2HgPd2,14.489,16.0272,1.5382
Ni2RuAu,14.2172,19.2627,5.0455
ErSbRh,40.1443,34.4762,-5.668
Ti4VOs,31.5468,30.3449,-1.2019
Pm(CdPd)2,19.2008,21.2772,2.0764
Ti4VTc,40.1321,36.0826,-4.0495
Sm2BPt6,64.4745,45.514,-18.9605
KNaBi2Se,39.647,36.4934,-3.1535
SiNiAsP2,20.8652,17.5122,-3.3529
Ti4ReW,6.6927,12.9159,6.2232
KNaCd2Pd,18.4027,17.7297,-0.673
Ni3Se2,17.695,15.9857,-1.7093
FeNi,47.3876,7.9376,-39.45
SrLiNb,48.2098,43.0253,-5.1845
Ti4ZnBi,13.6408,16.2495,2.6087
Si2As,27.4358,21.2752,-6.1606
NiPbC3,51.7947,39.5748,-12.2199
Y4CS2O,41.1017,33.1057,-7.996
ZrTc2Au,75.4443,65.8295,-9.6148
In2GaCu,15.4173,15.496,0.0787
Zr2TcAu,83.9218,72.4373,-11.4845
TmZnPtRh,43.3439,33.7593,-9.5846
Cd3InC,28.3249,24.7141,-3.6109
Nd4Er3Pu,32.4974,34.9431,2.4457
ZrTc2Au,82.7199,65.8295,-16.8904
Sc(AsRu)2,23.1622,18.8738,-4.2883
U2B6Mo,18.0936,20.4371,2.3436
GdCuGe,6.1485,10.7669,4.6184
K2Ba2Ca,4.787,5.0474,0.2604
Sm2Y2Th3,39.5345,42.3656,2.8311
MnP2Au,32.8174,30.6617,-2.1557
Sm12Hg3N5,0.0,1.4599,1.4599
Cs2RbSrBr5,12.7665,12.9663,0.1998
Ac2NdUN5,25.1714,26.3147,1.1434
Zr3Ni,67.2843,54.6996,-12.5847
UCuP,31.9487,32.8598,0.9111
Ag2BPt6,66.9621,46.521,-20.4411