Formula,E_hull_DFT (eV/atom),E_hull_ML (eV/atom),Delta (ML - DFT)
YGa4Rh,10.8831,10.3541,-0.529
ZrPd4Pt,42.5814,37.3116,-5.2697
CuSeN2Cl,23.5121,20.4568,-3.0553
CaMgC,23.0015,17.6938,-5.3077
Ca2PrSm,8.4595,9.7369,1.2774
NaLa2Ti,39.3949,28.7175,-10.6774
BaThCuS3,33.4928,28.5308,-4.962
La4OsSeBr2,38.7297,30.2279,-8.5017
In2Ge2Sb,17.3098,17.3031,-0.0067
B2PC,20.6008,17.0566,-3.5442
Er4Ir2PdRu,31.1452,32.6887,1.5435
TlNCl2,24.1825,23.5163,-0.6662
RuPbSe,33.4564,33.1079,-0.3485
SrY2Cu,27.1041,21.5815,-5.5225
Rb2RuSe,40.7991,33.7565,-7.0426
BaSbRh,30.8772,24.5267,-6.3505
Ta2CrSe,58.1711,45.9262,-12.2449
BaCdRe2,67.2269,50.4202,-16.8067
CsBaV2,71.9139,57.1102,-14.8037
PmEr4Zr,40.7717,39.3491,-1.4226
Sr(YCu)2,31.6014,24.7057,-6.8957
Y4AlIn,24.4007,21.1611,-3.2396
Tl4SbMo,44.7258,43.906,-0.8199
Na2LaW,31.8102,27.004,-4.8062
Ta2CrSe,58.056,45.9262,-12.1298
LiIn2AgI4,20.4974,19.5252,-0.9722
BiSNCl2,34.2345,29.7372,-4.4974
Si2NiC,25.2019,13.2578,-11.9441
Tm2SI2,31.2816,29.2997,-1.9819
Pr2Sm5Ho12,24.086,25.6758,1.5898
Ba2NiPdO5,4.1935,3.6582,-0.5353
Li4Sc2F9,0.0,0.3984,0.3984
CdCuBr2,15.3416,14.6072,-0.7344
Cd2CuBr2,16.3323,16.0935,-0.2389
ZrCN2Cl,43.4744,36.5215,-6.9528
Mn2Te2S,67.6807,54.7394,-12.9412
AsRuPb2,35.3761,35.0225,-0.3537
Sb2Te2S,42.4066,34.7884,-7.6182
LiAg2Au,27.495,24.4513,-3.0437
LiSmScRh,19.7965,18.0698,-1.7268
AsRuPb2,35.8755,35.0225,-0.853
Be5Co3,7.0905,4.2777,-2.8128
Sr3TaTi,25.0634,20.057,-5.0064
Nd4PuIn15,22.9897,24.2514,1.2617
As2RuBr,17.424,15.59,-1.8339
BaCdW2,25.5661,27.9815,2.4155
TiV2P,57.4922,47.4588,-10.0333
Ac6Si2CI3,44.7487,43.2095,-1.5391
TbZrAu4,51.6474,50.4474,-1.2
RbBa2WO5,5.0392,6.2224,1.1832
AsRu2Pb,26.4236,27.2005,0.7769
NdTmSb,32.7723,31.9619,-0.8104
Sr2AcHfO6,14.8798,14.9642,0.0844
PrHoSi,12.4694,12.8316,0.3622
LiAcGaPt2,49.5588,39.7943,-9.7644
BaLi2NCl,8.668,8.9043,0.2364
AcTh2(CuGe)2,32.2785,35.4755,3.197
AsRuBr,19.3588,18.3069,-1.0519
Th2CuSi3,23.9921,24.1656,0.1734
BaSb2C,38.8635,29.2276,-9.6359
TmZrRh4,53.7418,41.9048,-11.837
Sb2MoPt,48.8096,38.6889,-10.1208
AsRu2Pb,26.5567,27.2005,0.6439
In(SnSb)2,30.4047,26.8025,-3.6023
BaLiAg2,17.7214,13.8337,-3.8877
SbMo2Pt,41.3367,34.222,-7.1147
LaNiAg2,30.0909,22.8639,-7.2269
Sm3NCl7,11.9164,13.7167,1.8003
Sb2RhSe,41.9422,32.8495,-9.0927
Tb4ErZr,33.8673,34.5839,0.7167
SmZrAu4,51.4201,50.2147,-1.2053
LiTiInAg,15.2915,13.833,-1.4585
YPS2,51.1218,41.3921,-9.7297
RbLuTl2,34.125,35.5712,1.4462
BaAcPtO6,9.9316,9.4964,-0.4353
SrLa(GaPt)2,42.5641,31.8542,-10.7099
Ti2InSb2,23.8707,21.0504,-2.8203
KNiAg,17.3799,15.3191,-2.0608
BaLi2CdIn,11.0084,10.6339,-0.3745
MnZnPt6,80.1715,56.8597,-23.3118
Y(CoGe)2,17.9463,16.6568,-1.2895
LiCd2InRh,22.5006,19.2242,-3.2764
Ca2CoTc2,38.706,32.9583,-5.7477
Hf2Ni2Pb,62.6874,49.289,-13.3984
CdIn2Ir,25.8323,27.5633,1.731
SrMo2Ru,18.7964,19.0537,0.2573
Sm2Al3GeAu4,29.0823,29.1214,0.0391
LiCdInAu,22.5791,22.5779,-0.0012
SrMoRu2,17.3305,19.3239,1.9934
TbTmInAu,30.4259,32.9531,2.5272
Na4Np2Cl9,11.9206,12.5526,0.632
Na4Tb2Cl9,6.7172,7.8398,1.1226
SrMoRu2,17.554,19.3239,1.7699
AlSiF,14.9698,13.1152,-1.8546
Sm4TlAu3,35.9212,37.8083,1.8871
Rb2Se2S,30.7655,23.749,-7.0165
Re2Se2S,46.7079,41.5815,-5.1264
Tl2Se2S,47.492,40.8495,-6.6425
CrTcMo2,24.1761,26.6045,2.4284
TlNiPt4,69.411,51.6926,-17.7184
CdTe2,31.9051,32.1182,0.2131
AsPtW2,45.1577,41.3138,-3.844
Cs(BiC)2,52.1026,44.2726,-7.8301
ScNCl2,27.6831,26.1815,-1.5016
AsPt2W,57.8382,45.2924,-12.5459
Zr4PaAg,82.0171,70.0328,-11.9842
LiAg2Os,26.7322,24.615,-2.1172
K9(RbNa2)2,14.051,11.8181,-2.2328
FeAgTe2,29.3062,27.9853,-1.3209
CeY3,10.435,13.4612,3.0262
CdIn2Os,25.5609,27.6013,2.0404
NaAlSbTe3,29.3093,26.6482,-2.661
SbRhPb,48.8275,41.5142,-7.3133
LiReAg2,26.1647,23.7273,-2.4374
Zn5(Sn4Pb)3,13.3741,14.8487,1.4746
SmEuPb,34.9855,37.245,2.2595
YMgPS2,41.3199,33.4695,-7.8504
TlReMo2,34.1642,34.966,0.8018
Ta2Cu2Ru,14.073,18.2167,4.1438
ZnGe2Pt,28.8971,23.58,-5.3171
SbRhPb,49.3992,41.5142,-7.885
FeAg2Te,26.7752,23.1908,-3.5845
Fe2AgTe,19.2855,18.0237,-1.2619
Sc3NCl,16.9645,16.2049,-0.7596
Sr4(RuO4)3,0.0,0.0,0.0
TaCrRu,54.8885,20.4667,-34.4218
HfTa2Ru,58.2626,52.2731,-5.9896
LiAg2Pt,38.0009,27.734,-10.2669
HfTaRu2,52.6358,46.1912,-6.4446
Zr4TcAg,86.0536,71.7707,-14.2829
CoSbAs2,22.2003,18.7815,-3.4188
TiNb2PtN,74.8523,62.6111,-12.2413
Rb2Na9Cd4,20.1269,16.9539,-3.173
Na2FeCu,30.6285,24.3623,-6.2663
Sm(GaAu3)2,35.8956,37.0641,1.1685
NaYTl2,31.9355,33.4621,1.5266
HfTePd,47.1272,35.1291,-11.9981
In(ReOs)2,27.3129,34.9647,7.6518
SbRhSe2,47.8669,33.4877,-14.3793
LiBiSb2,36.1457,29.612,-6.5338
HfTePd,46.9768,35.1291,-11.8477
TaBi3Sb,49.7506,48.541,-1.2096
ScNbNi2Rh,42.7093,35.2806,-7.4287
NaHoTh,39.8264,40.6853,0.859
Hf2TePd2,65.2692,50.5708,-14.6984
LiAg2W,59.1692,44.4215,-14.7477
TlCu2F6,7.7598,8.8615,1.1017
Ta2AsSe,47.473,47.6083,0.1353
Cu(AuF3)2,12.9266,13.9807,1.0541
SnGe2P,6.3982,9.1403,2.7421
PmTlSb2,41.0033,37.6391,-3.3641
In2Bi4S9,46.6777,38.5886,-8.0892
Dy2Y3Ni4,55.7668,48.9538,-6.813
CdIn2Te,25.1891,25.3557,0.1666
Zn2CuF6,2.6221,4.9889,2.3668
Na4Zn2Sn5,19.6804,18.3609,-1.3195
FeCo2F6,12.298,10.6089,-1.6891
Rb(AlCu)2,3.1147,3.6258,0.5112
Ca2TaI,14.5246,16.7365,2.2119
Tl2FeF6,11.367,12.1057,0.7387
FeSn2F6,7.7806,7.9307,0.1501
FeCu2F6,9.8964,10.0121,0.1157
Dy4Ga5Si2,15.8416,16.0868,0.2453
ZrCu6,21.0912,18.9475,-2.1437
TaCuRu2,20.0419,17.5211,-2.5208
Zn2BiF,16.5656,18.1821,1.6166
Tb5Sc2,15.7722,19.6421,3.8699
TbMn2V,89.011,71.0166,-17.9944
V2Zn2In,54.343,44.8846,-9.4583
Cu2PSe,21.3019,17.8438,-3.458
FePPd5,22.1002,21.622,-0.4781
Y6CuPb2,27.0633,26.4788,-0.5845
Li2TiAu,7.4593,12.1651,4.7059
AlSiHg,19.7011,15.999,-3.7021
CdInAu2,33.3068,34.4586,1.1517
BaLiCdIn2,13.2282,13.5534,0.3252
Cd2GeF6,12.6062,13.2264,0.6202
TaCuRu,21.4771,24.472,2.9949
KZn2Si,11.4475,9.905,-1.5425
NaTb2Ho,26.6806,27.7991,1.1184
BaReOs2,44.3255,40.5522,-3.7733
Ac6Co(PtBr)2,55.5793,49.6847,-5.8946
LaDy2YHo,25.604,24.5326,-1.0714
Na3ZrTe,43.3508,35.6933,-7.6575
NiAgIr,27.6707,27.9297,0.259
ZrTaC,67.5257,56.9258,-10.5999
Sc2Cd2Ni,12.1531,13.5086,1.3555
BRh3Pb,31.304,29.5243,-1.7796
Rb5(PbCl4)3,0.0,1.1552,1.1552
La12Pb3C5,35.9257,22.9924,-12.9333
Cr2OsRu,22.4009,21.0951,-1.3058
Ti5SnAu2,21.5554,15.8687,-5.6867
MnSN2Cl,42.4467,33.3984,-9.0483
SrSnSb2,30.5722,26.3274,-4.2447
LaNbPdN2,50.4821,39.7979,-10.6842
Sr2Y,16.7052,15.6858,-1.0193
Pr(HoIn4)3,19.4754,20.7639,1.2885
BaReW,42.5195,37.9297,-4.5898
Ba(TePb)2,33.6598,33.8656,0.2058
Zr(SeS)2,61.0112,48.2054,-12.8058
CuTcIrPb2,50.7289,48.1853,-2.5436
Sr2Y,13.6731,15.6858,2.0127
Sm2Se2S,32.6568,28.9943,-3.6625
AlSi2Ag,26.451,19.8061,-6.6449
Al2CdBr,9.3287,10.2512,0.9225
TaCrRu,24.4452,20.4667,-3.9785
Ba2OsNCl,25.1943,20.5151,-4.6792
LiCu3Br4,17.2445,15.4557,-1.7888
Ta2CrRu,50.1056,43.6386,-6.467
TaCrRu2,44.7238,36.6052,-8.1186
Ca2ZnGeAu6,31.4231,32.2175,0.7944
U(SbAu)2,44.9615,43.4056,-1.5559
LiAgOs2,29.199,30.8742,1.6752
TaCrRu2,44.9381,36.6052,-8.3329
Mo2AsIr,26.8022,24.8469,-1.9553
Sb3SeS,48.59,36.701,-11.889
YTaP2S,40.5757,34.2762,-6.2995
MoAs2Ir,15.9841,18.3685,2.3845
MoAsIr2,30.9648,33.736,2.7712
MoAsIr2,30.9529,33.736,2.783
AcTb(H3Ir)2,12.1024,15.0168,2.9144
MoAs2Ir,23.0595,18.3685,-4.6909
KMo2Ir,27.9295,24.6086,-3.3208
Sr2In3Hg4Pb,13.4934,14.3877,0.8944
Sc2SiAs2,28.4871,21.1287,-7.3585
Be2PbBr,23.9248,21.4416,-2.4832
SmAl2GaAu4,28.0883,30.0014,1.9131
LaSmGePt,37.3561,28.9966,-8.3596
YCu,30.9928,24.7545,-6.2382
BePbBr2,26.1132,23.4736,-2.6396
CdInPt,42.6721,34.467,-8.2051
TaCr2Ru,42.9425,33.654,-9.2885
SrY2,16.8972,16.2172,-0.68
LiAgPt2,52.4067,38.2165,-14.1903
TcNi5,20.6747,20.5043,-0.1704
Bi2Sb2Au,49.2719,46.9127,-2.3593
La3RuPb,26.625,22.9729,-3.6521
Tl2Sb2Au,44.461,41.9464,-2.5145
K(SiTe)2,25.1977,21.3681,-3.8296
Sm2Y4Er2Th,25.5794,27.7987,2.2193
LiReAg,24.2369,24.0545,-0.1824
SiTe2,33.2952,30.8435,-2.4516
SrY,0.0,2.26,2.26
MnNCl3,32.6895,26.7443,-5.9453
Na2SrAlSb2,22.3886,18.3557,-4.0329
Ac2CdAu4,47.8326,48.9365,1.1038
Si2Te,20.2076,17.584,-2.6236
LiCa2Al,6.3856,6.3507,-0.0349
LiAgSb,25.4283,20.6994,-4.7289
Pm12Pb3C5,20.152,18.842,-1.31
NCl,3.4322,2.5689,-0.8633
SrY8,14.8713,16.4132,1.542
LiTa2Ag,26.7358,27.3265,0.5908
SbPdSe,37.4529,31.7466,-5.7063
La2SiW,39.7083,31.0427,-8.6655
AlCd2Br,13.1691,14.671,1.5019
Sb2Pd2Se,30.9976,26.21,-4.7876
Ta2AsSe,47.281,47.6083,0.3273
YCu,0.0,24.7545,24.7545
CdPb3,44.2661,45.579,1.3129
Al2CdBr,9.3822,10.2512,0.869
CdCoAs,17.7056,16.0506,-1.655
Na2B2SbO6,13.5012,11.4824,-2.0188
Al2CdBr,9.4024,10.2512,0.8488
Ba2TbSb2,18.0825,17.1567,-0.9258
Tb3PaIn12,23.7218,25.0912,1.3694
CdPb3,44.2608,45.579,1.3182
Ba2TmSb2,18.9425,17.8877,-1.0548
PrLu2Pu,33.7732,36.589,2.8158
SnRu2O,30.6808,28.4702,-2.2106
Mg2TaRu,10.61,15.3215,4.7115
BeSb,23.0844,19.3765,-3.7079
K4Rb2Na9,18.2609,14.665,-3.5959
La2Sb2Au,41.8724,33.5387,-8.3336
Ta2OsN,38.9748,38.1869,-0.7879
Pr(HgSb)2,13.3032,10.9671,-2.3361
KTiI3,12.6127,14.8149,2.2021
LiAgW,68.2713,51.3919,-16.8794
Mn2SnMoC,71.7393,52.4015,-19.3378
LaSiHg,21.8899,15.7204,-6.1695
TiPAu,8.3339,7.167,-1.1669
La9(NiRh2)2,38.2282,25.8443,-12.3839
Na4Mn2Br9,22.5677,21.6672,-0.9005
Na4Tl9Pb2,43.986,43.092,-0.894
Th3MgH8,17.2763,18.6539,1.3776
Ca2TaCr2,35.8562,25.2319,-10.6243
LiAgW,68.9212,51.3919,-17.5293
NaTcO3,17.176,15.3851,-1.7909
LaHfCu,61.2706,44.6963,-16.5744
Cd2CoAs,18.1317,17.3432,-0.7884
Re2SbRh,43.97,40.4157,-3.5543
Tb4TmIn15,21.3157,22.5871,1.2715
K2AcF6,12.9323,13.8584,0.9261
Ac2Pt2Pb3,65.8658,58.982,-6.8838
Rb(AlSn4)2,16.0655,16.8467,0.7811
Sb(PbI)2,38.9653,37.447,-1.5183
TmHfTh,73.2549,65.8705,-7.3844
TbTlCuBr5,14.5111,16.5805,2.0694
Rb2ScGe2,13.2752,8.6942,-4.581
LiAl2As,19.5355,13.9946,-5.5409
YTl(PS4)2,49.9659,42.227,-7.7389
CdIr2,35.5194,39.1192,3.5998
LaSiPb2,42.6579,37.6651,-4.9927
CoHgOF2,11.0149,9.1715,-1.8434
Sr2NCl3,18.9384,18.2419,-0.6965
LiAl2As,19.5134,13.9946,-5.5188
Ac2Zn3Ga4Ru,21.2306,21.1893,-0.0413
CdIr2Au,38.8877,41.4476,2.5599
CoAsIr,26.1675,27.219,1.0514
Ta2FeSe,30.9474,31.6838,0.7364
CoAsIr2,30.487,31.4003,0.9133
LiAl2Br,13.9201,12.3231,-1.597
Sr2YCu,24.9053,21.2261,-3.6792
NaPmSm,24.9349,25.2795,0.3446
BaLiAl2,13.8705,9.5789,-4.2916
Sc2SbBr2,21.2981,20.6944,-0.6036
Sr3Cr5Te12,15.2355,13.9624,-1.2732
Ba4Sr2N,3.9086,5.2769,1.3683
Ac5PtPb2,59.5546,57.5405,-2.0141
LaCoAs,28.1612,20.9342,-7.227
NiGe,0.0,0.0,0.0
La2CoAs,33.7036,24.7773,-8.9263
Y5Pb,20.1117,23.0319,2.9202
LiCaAl2,5.8277,5.6364,-0.1914
Pm2ErThAs4,21.6445,24.5208,2.8763
ScPdRh2Br,30.6129,23.1517,-7.4612
SbRuO2,29.1929,28.0302,-1.1627
SrYCu,28.5554,24.0834,-4.472
LaTlSi,38.9411,32.9855,-5.9555
Rb2TaSnSe4,26.3898,23.8483,-2.5415
SrAgI3,12.9317,13.8426,0.9109
Na2NbZn2,39.2387,32.9457,-6.2929
TaSbRh,43.4594,38.8807,-4.5786
YPS,0.0,0.0,0.0
TaSbRh,43.4308,38.8807,-4.55
LaTa2Si,35.1752,32.6982,-2.477
Zr2NiP,56.2901,47.7932,-8.4969
SrPmTe2,29.3118,29.6174,0.3056
Ac2PdAuO5,20.1984,21.5693,1.3709
Ta2RhSe,42.7723,39.0082,-3.7641
LiAl2Cl,6.6661,6.0766,-0.5894
Sc2TlP,31.9366,28.9195,-3.0171
Sb2TePd,37.8466,32.5886,-5.2581
SbTePd2,26.9884,25.1885,-1.7999
Sb(TePd)2,29.4878,27.192,-2.2958
BaScCo,7.816,6.8062,-1.0097
Sb3TePd,39.6696,32.6064,-7.0633
YCuTc2B,78.4636,64.4099,-14.0537
As3PdRu,17.3744,14.4188,-2.9556
LiAlCu,7.3657,6.7738,-0.5918
SmGaAu,21.6807,25.2212,3.5405
Ca2FeRe,28.8268,26.2923,-2.5345
Re2PtCl,44.4517,39.5447,-4.907
Ac(PtPb)3,65.2661,54.2444,-11.0217
NaCrBr2,22.9454,20.0936,-2.8519
Sb2TePd2,29.8762,26.5769,-3.2994
BeP2NCl,24.0345,19.298,-4.7364
Ac4PtSe3,59.8546,54.066,-5.7885
Ba2ScCo,1.5882,3.0511,1.4629
Cu2SnAs2,25.044,23.1113,-1.9327
BaScCo,1.7962,6.8062,5.01
Ca2FeSb,30.558,23.9275,-6.6305
CoReAs,24.8544,25.0079,0.1535
Sc2Co2Ge,9.38,8.4135,-0.9665
MnAgPb,61.4992,51.4234,-10.0758
MnAg2Pb,53.9887,44.4368,-9.5519
Pu(ScCo)2,11.4367,14.0481,2.6113
Ba2HoPdO5,5.5894,5.288,-0.3015
Ba2PdPbO5,7.4301,8.2347,0.8046
SrY2Cu,27.4507,21.5815,-5.8692
Sc2Cu2Au,38.9272,32.2135,-6.7137
Ca2FeTc,41.4812,34.6105,-6.8706
Mn2SiAg,61.3976,46.2545,-15.1432
Sc2NClF,19.0588,17.6169,-1.4418
TlCrMo2,16.1203,20.3225,4.2022
LaPb,38.3156,34.1696,-4.146
RePdO6,23.4349,22.1216,-1.3133
Dy2Sc2Tl,18.5734,21.7847,3.2113
TlRe2Cl,34.9268,36.8817,1.9549
KIrS,32.0089,28.7756,-3.2334
BaNiAg,17.2468,13.3704,-3.8764
AlNi2Mo,25.0384,22.6712,-2.3672
Ag4Mo2O9,13.6836,12.6208,-1.0628
ZrTa2C,58.9571,52.3975,-6.5596
Li2MoRu,9.7684,10.7713,1.0029
Co3CI,22.8016,18.6986,-4.103
HgI2NCl,20.4534,19.5288,-0.9247
TbTm2ScAs4,21.5906,21.3971,-0.1935
LaMoBr2,22.7037,15.6674,-7.0363
TaSbPt2,64.9581,50.2551,-14.7031
Y(CoGe3)4,13.2015,12.9464,-0.2551
Sc2CoSe,10.2011,11.6725,1.4714
GaTcTe2,46.5073,42.7083,-3.799
Ac5PtSe4,58.7926,52.8905,-5.902
LiBeSn,8.0992,6.0945,-2.0047
GaTcTe,31.257,28.8947,-2.3623
GaTcI,27.4222,25.3642,-2.058
Cd2Pb4O9,11.2429,13.6821,2.4392
InSbSe3,42.0174,34.0569,-7.9604
AlMo2Br,21.9634,17.5055,-4.4578
Al2Ga4O9,12.5789,12.091,-0.4879
Al4Ga2O9,1.956,3.4895,1.5335
Np2Cu4O9,2.7958,5.9704,3.1747
NaCu4Pb,17.4372,17.7732,0.336
Al4In2O9,0.0,1.5163,1.5163
Gd(InCu)2,16.2438,18.026,1.7822
Ta2RuSe,26.6455,37.9931,11.3477
LiMoRu2,13.4601,16.1881,2.728
Rb3CoNCl4O3,6.0474,3.6345,-2.4129
Ho(ScTl)2,28.0992,30.0471,1.9479
Li3InIr,14.8482,14.7688,-0.0794
MnZn3Se4,38.8353,32.5873,-6.248
Ce4AgBi12,45.9411,46.2821,0.3409
CoAs2OsSe,39.6261,35.8177,-3.8084
MnCd2Pb,47.8827,40.6257,-7.257
MnCdPb2,56.3347,51.2664,-5.0683
Ta2CdPt,45.7182,42.3179,-3.4003
Tb5Pr5Sm,12.4633,13.9034,1.4401
LiAlOs,19.0089,19.7317,0.7228
Ta2CdPt,45.4739,42.3179,-3.1561
CeCuO2,0.3031,3.4563,3.1533
MnCd2Pb,47.9694,40.6257,-7.3438
Nd4In12Ag,21.2423,22.0158,0.7736
Pr12Nd5Ho2,6.6031,7.9871,1.384
Pr12Nd5Sm2,6.2509,7.6496,1.3987
GaTe2Pd,30.3148,29.3884,-0.9264
Na2Cu2Pb,23.3877,22.0626,-1.3252
Co2Ir2Ru,18.8035,21.285,2.4815
Yb2NCl,23.5624,26.5404,2.978
CoSi2P,17.4308,11.8664,-5.5644
Na2YGa,15.5589,14.5289,-1.0301
Na2Be2ZnAu5,28.3515,27.1589,-1.1926
Ni2As2Pd,25.3764,20.2034,-5.173
ReBW,26.4601,31.7323,5.2722
Y2BrCl2,60.2223,55.7343,-4.4881
ZrGe2C,45.5296,37.4543,-8.0754
CoSb2As,31.4558,24.6638,-6.792
VGaCo4,26.9227,24.3555,-2.5672
Zr2GeC,58.2445,49.1944,-9.0501
AlMo2Br,21.8517,17.5055,-4.3461
Co2SbC,33.9733,25.2667,-8.7065
ZnTcW2,44.7246,44.1495,-0.575
Co2Te3Pb,28.5578,28.7345,0.1767
NaSrMn3,69.9579,56.8564,-13.1014
Ti2Si2Os,7.4072,9.4869,2.0797
Na3Sn(BiTe3)2,37.5335,35.199,-2.3344
CoSb2As,30.9574,24.6638,-6.2936
CoSb2As,31.388,24.6638,-6.7242
Mn3SiC,76.4144,55.9749,-20.4394
Nd4Al12Ag,10.1437,10.4522,0.3085
Sm4Al12Ag,9.4082,10.6596,1.2514
ThZn2GaCu2,18.329,18.8215,0.4925
Sc2TaTi,67.1767,57.3597,-9.817
KNiAs2,19.5383,16.1012,-3.4371
CuSbPd,19.1032,18.3438,-0.7594
Sm6In2Pb,22.1492,25.4554,3.3063
Ta2TlCd,36.7153,39.2524,2.5371
Pr2BiI,16.1107,18.2115,2.1009
NaY2Ga,15.5982,15.9176,0.3194
Ac2Er2Pd15,23.2878,24.9541,1.6662
VCd3Ag,44.4044,37.0321,-7.3723
Mn2FeSi,56.1872,43.1104,-13.0768
PrSm3O,17.3865,16.6355,-0.751
Be2Al2Pb,27.1054,22.014,-5.0915
Ta2CdW,33.1427,37.6435,4.5008
Ce2HfNi,52.9164,43.2271,-9.6892
Nb2SnP2,54.3789,47.6423,-6.7366
Ac2ZrGe3Pt4,60.3744,48.4833,-11.8911
ReNi5,24.7137,19.6323,-5.0814
Sm3AlAu4,32.7588,34.4198,1.661
Ac8Pt3Br3N,54.1556,49.7111,-4.4445
MnSi3Ge,32.2786,22.5396,-9.739
Sm5Sc2,19.3632,21.3516,1.9884
YCoAs,35.255,30.4941,-4.7609
LiAl2Re,14.5558,15.4974,0.9416
Pa4Al12Au,20.4389,22.576,2.1371
K2CuAg2,16.7267,13.7354,-2.9914
Ta2CoAs,43.45,35.846,-7.604
Th4Al12Au,20.0314,21.5237,1.4923
Nd2ScSn2,19.3647,19.3805,0.0158
Tb2SmAu2,29.0887,32.5623,3.4735
ZrCoAs,43.7413,37.5024,-6.239
Co4IrRu,17.0502,17.6345,0.5843
Ta2CoAs,43.4303,35.846,-7.5843
YBrCl2,42.1794,42.1956,0.0162
Sr2AsRu,18.1658,15.6507,-2.5151
NaCuS2,36.1927,28.0888,-8.1039
ScIBr,8.6926,8.9498,0.2572
SrAs2Ru,19.3518,15.3369,-4.0149
KAc(PuSe2)2,50.1242,46.6307,-3.4934
La2AlAs,40.9366,28.9685,-11.968
InTc2Pt,67.6909,56.2529,-11.438
La2AlAs,41.2263,28.9685,-12.2577
Zr6Al2FeH3,49.2818,41.5019,-7.78
HfPS2Br,56.1476,43.9681,-12.1795
AcGd2Pt,52.61,48.3454,-4.2646
La3AlAs,43.6612,29.8177,-13.8435
CaTaSi2,17.2511,14.7743,-2.4768
Hf2ScPd2,60.4904,44.9853,-15.5051
Ti6Te2Pt,22.1219,20.9726,-1.1493
CeErCoHg,14.8916,17.5926,2.701
YBrCl,55.8119,53.4666,-2.3452
Sm4Al12Co,10.817,10.7854,-0.0317
FeAu2Se,35.8292,35.0485,-0.7807
BiSb3Ru,42.8421,36.462,-6.3801
ReNiOs2,52.0395,44.5219,-7.5176
NaFeAu,22.3235,22.8606,0.5371
GdCu4Pt,23.9316,21.1092,-2.8224
CsRhCl2,16.1853,13.5771,-2.6083
SmAl3AgAu,14.6254,16.0608,1.4354
GaGeOs3,30.5363,33.1401,2.6039
LiAl2In2Pt5,44.9374,32.3863,-12.551
Re3AgI,37.7057,37.4893,-0.2164
LiAl2Sb,15.7083,13.0151,-2.6933
MnZn2Ir,43.4234,35.4776,-7.9458
Zr(ScTc)2,110.1909,90.8489,-19.3421
CaSbOF2,29.79,25.3256,-4.4644
Ac4CdPb12,53.1016,53.8695,0.7679
Ag2AsPt,40.6409,30.5651,-10.0758
Sc2CdIr,20.6052,18.2552,-2.35
Hf5Fe3,89.6591,64.5444,-25.1148
VSbO2F,46.6101,38.5088,-8.1013
Sc(InAg)2,23.3327,19.4499,-3.8828
TaCdIr2,35.8107,39.5178,3.707
AgAsPt,43.5622,33.6774,-9.8848
NiRh3,38.4343,30.6441,-7.7902
Ac4Tl12Cd,51.9175,53.0223,1.1048
Th2ScAu2,39.7174,44.0475,4.3301
Sr2ScAs2,18.7533,14.6226,-4.1307
Ce4Bi12Pb,47.2833,48.3071,1.0238
As2PtPb,40.5245,35.365,-5.1595
NdPRhO,18.7311,16.3072,-2.4239
ZnIr,0.0,3.3408,3.3408
KLiBr,11.9792,10.9818,-0.9974
InCoCu2,25.7546,21.7738,-3.9808
GaPPbS2,42.4366,34.0393,-8.3973
TaCdPb,36.6085,39.2193,2.6108
GdBeCu4,12.1748,12.1525,-0.0223
TlNiPb2,40.9366,42.1251,1.1885
Mn2SiPt,75.4802,55.5253,-19.9549
CoAsW2,28.3901,29.7164,1.3264
Sc(GaCu)2,20.5764,16.8979,-3.6785
KBaNaAg,17.0087,13.8657,-3.143
Ca(Pm2Pr)2,14.417,16.4626,2.0457
CaPm5Pr4,11.9243,13.5945,1.6701
Th6CuSe3S2,53.7201,50.1495,-3.5706
Zr2CoAs,57.1581,47.3678,-9.7903
Na2LiAs2Pd5,11.1964,12.3941,1.1977
Y4Bi5O,39.7246,40.5541,0.8295
BaTiI2,24.4317,21.2517,-3.1799
Sc2AgIr,23.1506,18.603,-4.5475
Nb4B3C20,62.8138,43.7093,-19.1045
Pu4Ga12Co,22.8492,24.5478,1.6986
Tl3CoSb,42.6623,39.9731,-2.6893
Co2RuSe,19.6431,20.0178,0.3746
YBi3O,50.4369,48.7078,-1.7291
Ca2PmPr,8.3675,9.9754,1.6079
Sc(TcNi)2,63.0721,53.6446,-9.4275
SrMn4Co,70.819,54.8533,-15.9657
Na3(SiAu)4,29.1459,25.7001,-3.4459
Th4Ga12Co,21.3427,22.9136,1.571
Zn2P2Os,8.0087,10.8739,2.8651
BaTm2PdO5,5.9565,7.9278,1.9713
TaZnSeBr2,23.8467,22.4598,-1.3869
Nb2Al3Ag,47.6146,40.986,-6.6286
CdGa3Sb,18.3767,16.6131,-1.7635
BeZnTe2,28.8906,23.8852,-5.0054
Sr2CoRe,27.7254,22.5944,-5.131
Zr2CoAs,57.1241,47.3678,-9.7563
CrMoW,21.2421,25.3376,4.0955
MnPSe,31.3612,25.6389,-5.7223
RbPd2F6,4.7137,5.1612,0.4475
Sm2Cu2Ir,22.8296,21.5317,-1.2979
SrZrPb2,54.1351,50.9789,-3.1562
Ba3Mn2MoO9,41.6798,36.4776,-5.2023
NaSc2Ni,11.2798,11.3221,0.0422
Zr2CoAs,57.3519,47.3678,-9.9841
AcPPdPt6,63.0474,46.4595,-16.5879
SrZrPb2,54.0986,50.9789,-3.1197
Al2SiTc,39.5831,31.6534,-7.9297
SrZr2Pb,65.8996,57.9335,-7.9661
LiAl2Tl,17.3609,17.1231,-0.2378
AlSiTc2,60.7555,51.583,-9.1724
Ac2P(PdPt2)2,57.605,46.0585,-11.5465
Tb2ScGa2,9.5909,13.1065,3.5156
Al2SiTc,39.604,31.6534,-7.9506
BaZnPtO,32.5697,22.5405,-10.0292
AlSiTc2,60.6282,51.583,-9.0452
NbRuC2,63.2361,52.5813,-10.6549
Li2Sm(AlAu)2,20.8475,20.6333,-0.2142
AcAl2Pt,39.1633,34.4752,-4.688
YMg9Sc2,4.2057,4.9516,0.7459
Al2SiTc,39.5093,31.6534,-7.8559
Cu2Bi2Sb,29.9327,29.6193,-0.3135
Sc2AsAu,29.2766,26.5836,-2.693
TaCdRe2,63.4696,55.3187,-8.1509
Al3SiTc,33.962,22.1602,-11.8017
Si4P2Se,21.2964,15.8377,-5.4587
CsFe2Re,22.9232,21.1477,-1.7754
SrZr2Au,64.6692,57.1167,-7.5525
Ce4In12Co,19.8715,21.1462,1.2747
Ce4CoRh12,40.3399,30.3224,-10.0175
SnTe3As,31.7469,30.331,-1.4159
Al(SiTc)2,51.3713,41.2788,-10.0925
CsRb2C,23.5593,18.2478,-5.3114
CoMoIr2,29.8076,31.1428,1.3352
GaTcAs,36.9801,32.922,-4.0581
Ac2CdPdO5,16.9201,17.8618,0.9418
Na3Ce2TlSe6,37.34,31.5564,-5.7836
Tc(AsI2)2,29.696,28.0561,-1.6399
Rb(ZnPt)2,35.6627,26.4228,-9.2398
CePr2Lu,12.298,15.1814,2.8834
Cr4Ni12Pt,21.9372,19.2254,-2.7118
Cr4Pd12Rh,17.7316,17.6908,-0.0407
Cr4Pd12Pt,20.0952,19.1699,-0.9252
NbIN2,44.5366,38.275,-6.2616
Sc(TiBi)2,18.8513,22.1858,3.3345
TbSmNiAu,25.6809,28.1187,2.4379
Sr(IrOs)2,32.3621,35.4443,3.0821
Th2Ga3CuNi12,13.4642,14.4281,0.9638
Ta4MnP,31.9062,31.9314,0.0252
In2SiW,23.6707,24.2461,0.5754
ScCr2Co,15.973,13.9358,-2.0372
Pr6HAu2C,7.0184,7.3639,0.3454
Th4CrGa12,21.527,22.6598,1.1328
SrY5Bi6,34.0742,35.0508,0.9766
CaSc2Be,13.8595,9.4074,-4.4521
Ca2LaY2,21.9606,15.324,-6.6366
YBiO12,6.7563,6.8399,0.0836
Ho2ScGe2,25.1274,23.2591,-1.8682
KRbTiI6,16.682,16.9194,0.2374
Tc2Sb2Te,63.9412,52.7924,-11.1488
Ta6MnSb2,45.5005,43.8881,-1.6124