Formula,E_hull_DFT (eV/atom),E_hull_ML (eV/atom),Delta (ML - DFT)
ErLuTlIn,33.045,35.6358,2.5907
Tl4In5,33.6302,34.5283,0.8982
GdPbSe2,43.4343,40.3346,-3.0997
Ho4PS3,34.3802,31.0584,-3.3218
HfNbCu,73.1035,59.5305,-13.573
K3Br,11.0801,10.8953,-0.1848
LiCu2Se,15.7387,14.7145,-1.0243
SrBe3O,9.1135,5.744,-3.3695
Mg(CoMo)2,5.1898,8.5439,3.3541
LiCuSe,17.8304,16.1212,-1.7093
Li(CuSe)2,21.8649,19.1441,-2.7208
Tc3RuC,72.9811,60.9001,-12.081
Th3(SiGe)2,34.542,34.8251,0.2831
NaTc2TeSe,61.0328,50.3742,-10.6586
Y2PuHg,43.4878,37.7488,-5.7389
Rb3Na2CrF9,11.4307,9.7895,-1.6413
Sc2TaGa,61.5405,57.5622,-3.9783
Cs2GaSnBr5,10.8349,12.2945,1.4596
TbFeAs,31.9024,29.6471,-2.2553
NaCu2HgF6,7.7025,7.634,-0.0685
Sm2Np(NiPt4)3,67.298,49.7051,-17.5929
TiCo3(BO4)2,-0.0,-0.0,0.0
Tb2PrOs,22.4315,26.3482,3.9167
SnOsPb,32.8153,32.9266,0.1114
Hf4SiSe3,90.9703,65.7492,-25.2212
AcPt(RhO4)2,20.8566,16.4754,-4.3812
PrAgGe2Pt5,54.6675,38.5759,-16.0916
NaYTlHg,31.2066,27.1334,-4.0732
Ce2AgSn4Pd3,24.6574,21.8938,-2.7636
Ni2AsBr2,13.7681,11.7324,-2.0356
LiPdI3,17.1061,17.7655,0.6594
HfCuSi,41.8755,30.5247,-11.3507
HfCo4Ru,30.5432,26.4162,-4.127
Ti2Co2Br2O5,18.103,14.1172,-3.9858
BaCa2Gd,9.999,11.8658,1.8668
Ba2CaGd,8.7678,10.0767,1.3089
HfCuIr2,51.3523,46.1995,-5.1528
BaCaCo,8.7181,7.8897,-0.8284
CaGd2Co,23.9224,23.455,-0.4674
Sr2LaAg,25.0118,21.0447,-3.9671
Y2Tc2Hg,91.435,75.788,-15.6471
TbY2Rh,25.4578,24.6606,-0.7972
GdCo,0.0,0.0,0.0
Hf2Si2Se,65.0201,45.6549,-19.3651
K2NaVF6,15.4272,14.2099,-1.2173
KScCoO3,73.3306,61.806,-11.5247
Hf2VCuAs,87.2409,64.4981,-22.7427
PrSmSc2,12.3797,13.1493,0.7696
Y2HgAs,27.0461,21.7649,-5.2811
Hf2CuAs4,47.1831,36.147,-11.0361
HoHfCu4,33.0873,27.666,-5.4212
Li2HfCu,34.2974,28.8251,-5.4723
Hf3TiCu,89.2839,64.0898,-25.1941
HfCuMo,46.0074,31.8403,-14.1671
HfV2Cu,95.0,73.9466,-21.0534
Rb2NaSrF6,5.3975,5.5667,0.1693
Rb2NaTeF6,12.9354,12.4372,-0.4982
YHgAs,19.6079,17.0724,-2.5355
MnTlInTe3,45.0363,40.6901,-4.3463
Na2SnWO6,24.2927,21.5858,-2.7068
Hf2CuSb,77.7501,57.9764,-19.7737
HfCu2RuW,52.3266,39.9917,-12.3348
HfThCuOs,64.4194,57.1018,-7.3176
CsNaSn2F6,11.2506,10.4422,-0.8084
Y2HgPd4,24.8637,21.4492,-3.4145
NaSiAg2F6,12.4176,11.9496,-0.4681
Hf5Fe4Cu,79.7607,57.8054,-21.9553
Hf2CuRu,70.1028,53.6991,-16.4037
Nd2SnSb3Pd4,28.6051,25.1761,-3.4291
SiIrN2O,16.4904,13.2266,-3.2638
Cs4La3TbO8,26.8503,25.9183,-0.932
HfCuSb3,57.5882,42.7916,-14.7967
YHgIr2,28.6008,33.6037,5.0029
HfCu2Sb,45.2573,34.8733,-10.3841
AcPt(SO4)2,21.5064,17.5357,-3.9707
Re5Ni,47.2131,43.8368,-3.3764
Th2CuSi4Ir3,32.3368,31.662,-0.6748
NiAg2BiF6,16.5862,15.9122,-0.6739
CaHfCu2,42.5695,31.627,-10.9426
TePbWI2,37.2222,36.8311,-0.3911
La3SbPd,44.1359,31.5884,-12.5475
Tb2PmRu,30.1844,30.2065,0.0221
HfCuSi2,38.886,27.9511,-10.9348
PuNi2,28.0478,30.8226,2.7748
Tl2NiPdF6,12.728,13.7675,1.0394
Li2GeI,5.3363,7.5396,2.2033
TaFePb2,38.6832,39.292,0.6088
Cs4Nd3TmO8,10.5736,12.2952,1.7217
HfCuSiAu2,53.1072,43.6633,-9.4439
HfCuPb2,64.3365,55.4231,-8.9134
SrHgGe2Pt5,52.9662,38.0608,-14.9054
Ac3GeB2Pt9,66.5595,50.2837,-16.2758
HfTi2Cu,40.1893,31.6185,-8.5708
HfV3Cu,108.3871,82.431,-25.9561
Hf6CuSb,114.4995,80.8028,-33.6967
HfCu3Cl,35.1263,26.2422,-8.8841
Hf2CuBr,79.7263,58.0225,-21.7038
Y2HgPd,29.3533,23.3253,-6.028
Hf(FeCu)2,61.5426,46.4837,-15.0589
In4Ni3,13.8928,15.2255,1.3327
CePrGe2Pt5,53.1758,38.6401,-14.5357
Ac3B2SbPt9,68.9438,51.8906,-17.0532
Tl2HgPdF6,12.3102,14.2474,1.9371
HfV2Cu,102.3436,73.9466,-28.397
RhPbN2,26.5932,25.5048,-1.0884
BaHfCu2,40.9332,30.4259,-10.5073
TaGaAs3,32.7263,27.4637,-5.2625
HfCuMo,46.1717,31.8403,-14.3315
YInPd2,20.2956,20.178,-0.1176
AcTa2Ru,42.9403,43.4175,0.4771
La(HfCu)2,64.1082,46.4334,-17.6748
Ta2GaAs2,46.2033,37.8489,-8.3544
Cs4Sm3TmO8,11.1999,12.3441,1.1442
In2NiPb2,26.9117,28.4085,1.4967
BaHf2Cu,74.9663,54.0903,-20.876
Rb3Pd2I7,16.0388,16.2707,0.2318
Rb3Sn7Pd2,17.3864,15.9259,-1.4604
Ac2HoZrS6,57.7689,47.5015,-10.2675
K(CdPb3)2,40.6118,41.0488,0.437
Ba2CoBS,14.2807,10.6946,-3.5861
Y2SnHg2,21.1114,16.3255,-4.7859
HfNpCu,48.9595,42.3223,-6.6372
Y6HoTmSc2,11.0129,12.2479,1.235
AgPt3Au5,59.7041,50.2329,-9.4712
Ac2GaNi2,14.9102,19.7749,4.8647
UVSb,55.8415,50.7483,-5.0932
TbDy(Y3Sc)2,8.905,11.7163,2.8113
YHo6TmSc2,19.1745,20.4054,1.2309
Er3TmAu4,37.6128,39.5576,1.9448
Nd6SmYSc2,15.5657,17.5982,2.0325
Ba2GaNi2,10.9695,7.7734,-3.1961
NdHfCu2,45.435,36.9522,-8.4828
Sr2LaAu2,34.2916,32.0246,-2.267
PrCo(CO3)2,15.4957,13.0665,-2.4292
AcSm6Th,35.1208,36.8798,1.759
Cd5Ag3Sn,23.496,21.2853,-2.2106
Sr2Y2Hg,22.454,17.92,-4.5341
NbInCoHg2,33.907,29.5102,-4.3967
Pr2GaSb,9.2732,7.7871,-1.4862
TiZnBr2,8.4193,10.9369,2.5176
Na2CuSI,26.3339,21.419,-4.9148
Ce5Sc,21.7013,23.7603,2.059
Y2InHg4,17.2527,13.7261,-3.5267
ScNiS3,43.5925,35.143,-8.4495
U4SiGe,49.7355,51.3757,1.6402
CdNiMo2,25.7013,25.3866,-0.3147
Hf3S,112.108,78.7998,-33.3083
HfCu2Sb,44.7848,34.8733,-9.9115
HfZrNbCu,97.6307,78.0087,-19.622
Al2(V2Ga)3,73.218,58.1048,-15.1132
Hf4CuSb,95.9962,67.2945,-28.7017
HfZrCuOs,72.347,60.0471,-12.3
InAg3Sn5,24.2692,22.0953,-2.1739
Hf2Cu2Sb,62.8403,45.9183,-16.922
HfCr2CuNi,45.4218,34.0082,-11.4136
RbTl2MoF6,10.9394,13.1644,2.2249
Hf2TlCu,80.3448,62.7401,-17.6047
HfFeCuNi,61.2692,45.376,-15.8932
CrSb2TePt,46.6842,36.0281,-10.6561
Cu(TcAs)2,35.7695,31.6945,-4.075
PuCd3Ag5,31.9262,28.1045,-3.8217
NiAsBr2,19.434,16.7225,-2.7115
Cs3Rb7Cd2,10.3858,10.0683,-0.3174
HfCuIr,39.569,35.1048,-4.4642
LaHfCuAs3,31.4843,24.2278,-7.2565
Sn6Sb,24.6086,23.8131,-0.7955
Y3HgO,31.6939,24.6075,-7.0864
Li4Hf3CuSe8,50.448,37.6846,-12.7634
Ag3Pb5I,42.2576,39.9965,-2.2612
Ba2CoAsS,17.8463,13.5694,-4.2769
YGa2Hg,16.5981,14.4762,-2.1219
Pr2HBr5,1.7032,6.7714,5.0682
AcAgGe2Pd5,22.1542,22.5161,0.3619
HfCuGeAu2,51.8214,43.598,-8.2234
Rb3Tl7Pb2,38.8584,39.406,0.5476
Y3TaHg,45.2705,34.3145,-10.956
Y5(SnHg)2,28.4658,20.8345,-7.6313
RbRePt2,56.5203,43.3263,-13.194
HfCuSbRu,53.2258,41.8344,-11.3913
HfCuSbTe2,56.363,44.4271,-11.9359
BeTl2W,38.9999,39.0291,0.0292
CaGdMgSn,14.0173,16.1691,2.1518
Rb2SClF6,6.3888,6.7036,0.3148
BePdSe,20.9643,19.9539,-1.0104
ScTcAs2,66.9663,56.8491,-10.1171
PrSmGdY,16.7178,19.1704,2.4526
Cr4CdCoS8,36.3333,27.6045,-8.7287
LaGd6,33.6823,32.044,-1.6384
ScCu2Tc,65.5735,55.3641,-10.2094
PuCu(SbS3)2,50.457,40.3474,-10.1096
Sc3SI,27.1791,25.3302,-1.8489
ZrTlMo,55.628,51.9259,-3.7021
Hf2TcIr,105.1174,81.9418,-23.1756
CuTc2As,50.9327,44.0945,-6.8382
CaPmSn4,18.5937,16.4947,-2.099
ErV2CoO8,23.5958,19.7609,-3.8349
TaFeRe2,40.1722,40.3098,0.1376
LiYHg3,11.7351,8.8385,-2.8966
SmY2TmSc,16.1744,17.1989,1.0245
YMoSN2,41.5862,34.4736,-7.1126
InAs2Pb,23.3496,24.3165,0.9669
Y2HgMo,32.6846,24.0152,-8.6694
Rb(MnIn)2,44.2995,35.4803,-8.8192
SrTb6,25.9887,27.0773,1.0886
Zr3Mo,68.7422,58.7784,-9.9638
YTm2Hg,27.7994,26.234,-1.5655
In2AsPb2,27.8139,29.1861,1.3722
TcSb3S,57.3159,44.3405,-12.9753
Sr6Lu,17.6435,18.0043,0.3608
YReHg3,18.6481,16.8032,-1.8449
Be3Cu2,7.6093,6.1613,-1.4481
Tb(PuSc3)2,22.9127,24.4117,1.499
Rb2ZnPdF6,2.2082,3.2405,1.0323
La6Tl2CoN,63.0804,49.4755,-13.6049
Pd12Se,20.1986,20.9166,0.7179
Y2Hg2Te,24.0425,19.3751,-4.6673
ReTc2Ge,72.3472,60.2654,-12.0818
SrLaBr5,12.571,11.0167,-1.5543
FeReW,41.0056,39.0271,-1.9786
Nd2ScSn4Pd3,25.0383,21.5823,-3.456
NaPmNd,24.8068,25.1415,0.3347
TePb6,51.5971,51.8337,0.2366
Y3C2,39.3206,30.3739,-8.9468
KP2Ru,8.9627,10.1023,1.1396
La3BiRu,38.4904,31.3149,-7.1755
TlZn2AgF6,9.6079,9.6805,0.0725
Re2TcGe,50.46,45.4378,-5.0222
ErCoS,24.0991,23.0109,-1.0882
TlZn2InF6,8.2281,9.4923,1.2642
AlCdW2,19.1996,25.0938,5.8942
YHgSe3,38.8989,30.7497,-8.1492
ZrTl4Mo,53.7174,51.6699,-2.0475
ZnAg2AuF6,16.0084,15.2697,-0.7388
RbTlZn2F6,6.1113,7.572,1.4607
Y2MnHg,45.4063,33.9935,-11.4128
RbGa3Tc,24.0929,21.3521,-2.7408
Sm2Er(Zn4Ni)3,10.6396,11.8819,1.2423
DyScNb4,99.9723,83.7047,-16.2676
LiInC,24.3043,17.7886,-6.5158
Ga2TcHgGe,23.7977,21.2929,-2.5047
CuSb2Pt,46.2375,35.1398,-11.0977
YHg3Pd,5.3277,4.7837,-0.544
Mn2CoSiHg,46.2533,34.5513,-11.702
Y4ScHg5,20.1966,15.5742,-4.6224
Tb5NiRh4,32.8034,28.9309,-3.8725
GaTcBi,46.6782,44.7672,-1.911
Ga2TcRh2,34.7734,28.6049,-6.1685
RbAlTl2F6,14.3893,15.536,1.1467
YHgW3,36.6984,34.9988,-1.6996
RbGa3Tc,11.6979,21.3521,9.6542
YIn3Hg,22.553,19.9006,-2.6524
U6V,78.5376,75.8976,-2.6401
GaTcSe,49.6645,41.8738,-7.7908
BeOs3Ru,31.0289,32.8193,1.7903
GaTc2As,50.9674,44.2999,-6.6674
Sm2Mn(ZnNi4)3,19.4784,19.2717,-0.2067
Ga2Tc,31.2625,29.1593,-2.1032
GaFeTc2,48.1667,41.1526,-7.0141
Cd2GaTc,32.1324,30.3691,-1.7633
Ga2TcHg,24.0507,21.9867,-2.064
Ac2Ni2Ge,33.3039,33.0691,-0.2348
UGaTc4,74.8726,65.0658,-9.8068
YHg2F,10.3504,10.1135,-0.2369
Sm4TlAu,28.1946,31.3308,3.1362
Pa2Ni2Ge,26.7949,29.5043,2.7093
Co3BiI,20.4127,21.8869,1.4742
Hf(NiPt)2,60.1345,43.5121,-16.6223
NdDySnPd,24.8768,25.0272,0.1504
Y3HgC,36.4699,26.7257,-9.7442
NiAg3,21.8708,17.7884,-4.0824
CaMnAg2F6,20.0974,16.7872,-3.3102
TaGaSb2Te,53.143,42.5396,-10.6034
YHgBr2,17.7021,14.6617,-3.0404
Zr2AgGe,53.0673,46.2782,-6.7891
TlAuSe,45.185,44.7166,-0.4684
YV3Hg,88.6826,68.1373,-20.5453
TiMo3I,16.7579,18.854,2.0961
SmPaGe2Rh5,38.9062,31.7461,-7.1601
Pr2YHg5,4.5492,3.6657,-0.8834
TlSb2Rh,43.0389,36.0626,-6.9763
YVHg2,41.3637,32.347,-9.0166
Y(TiHg)2,13.8846,12.0446,-1.84
Ba2ZrP4,19.7504,16.6075,-3.1428
Al2Tl2Zn,20.7457,22.2589,1.5132
Si2IrPbN,29.1074,24.3986,-4.7088
NiW,26.0577,27.7151,1.6574
AlTlZn2,17.521,18.6452,1.1242
SrAc(PtO4)2,21.0864,17.5528,-3.5336
NdEuSi,23.9478,23.5268,-0.421
Sc3ZnS6,40.5454,34.12,-6.4254
PmMnBi,53.7344,49.1082,-4.6262
Sc8Te3CS3,34.4791,29.9077,-4.5714
ZrSc7,16.7609,15.9879,-0.773
Al2TlZn,16.2945,17.9787,1.6842
Np3PS2,53.9066,52.6301,-1.2765
Pr3(YHg)2,12.1419,9.2101,-2.9318
AcGa2BiPt5,64.3286,49.4714,-14.8572
Pb(IO)2,48.4531,41.3639,-7.0893
Rb2ScO3,36.4514,32.8971,-3.5543
Sc3AuN,0.0,12.5387,12.5387
Ce3FeC4,39.3937,30.2072,-9.1865
La2Ni2Ge,22.3891,15.9521,-6.437
GaHg2As,4.6645,5.7216,1.0571
Ac2Tb2Te2Se3,44.1656,41.4858,-2.6798
SrGe2PbAu5,35.6047,36.4443,0.8396
Pm4ThIn15,22.6919,24.0323,1.3404
K(Tl2Bi)6,49.9644,50.2809,0.3165
Ac4PtSBr2,52.7343,48.0832,-4.651
SrPmGe2Pd5,15.6218,17.3119,1.6901
Y2HgIr,35.9125,30.232,-5.6805
Sm(DySc)2,18.1388,20.3775,2.2388
FePd2Pb,24.6711,25.6595,0.9884
LaY2Hg,38.1508,27.1034,-11.0474
CsTmCoO3,2.6936,6.2365,3.5429
CsTiSb3,34.6964,28.4785,-6.2179
PmNdYHg,24.7533,23.2688,-1.4845
CsBeN,23.9876,20.4013,-3.5863
AcCd(SnPt2)2,59.7966,47.2948,-12.5019
HfV3P,108.558,81.8962,-26.6618
SrThGe2Pt5,60.0978,45.4709,-14.6269
Zr2ScF,45.892,40.13,-5.762
LiBe2Ag,9.9322,7.6427,-2.2895
CsSn2PtO,50.323,40.3275,-9.9954
YPaTlHg,42.1698,40.7797,-1.3902
YAlHg2,18.932,14.5909,-4.341
LaNbBi3,72.6576,64.0088,-8.6489
YEr2HgC,33.5538,28.8309,-4.7229
GdTm2Pa,39.6965,42.0174,2.3209
Ac2(H2Pt)3,35.6698,29.2508,-6.4191
ReBP2S,39.0074,33.0921,-5.9152
Nd(InNi)2,14.9965,17.2022,2.2057
YErHgAu,31.1137,29.2679,-1.8458
CsBeN2,30.3425,26.1287,-4.2138
Li2YHg3,8.9204,7.0604,-1.86
LaTbLuSc,29.3058,27.6269,-1.6789
MoIr2PbF,37.6566,35.0957,-2.5609
RhPb6Au,51.5401,50.6399,-0.9002
LaY2(InHg)2,27.148,21.8325,-5.3155
Rh3PbAu,50.9178,41.797,-9.1208
Li3MoBr,13.5642,12.8446,-0.7196
Nd2DyNi2,12.1866,15.913,3.7265
SiSO,23.0892,17.6882,-5.4009
UNi4W,26.8434,25.4358,-1.4076
DyCu4Au,16.6254,18.4329,1.8074
La2CuNi4Ge3,21.504,15.2834,-6.2206
Tl2AgGeI5,25.4736,25.4263,-0.0473
AcYHg6,13.8295,12.7944,-1.0351
TiSbP2Pt,33.0301,25.1758,-7.8543
Cs2HgPdF6,6.5395,7.236,0.6965
TiPPt,37.5485,29.4988,-8.0497
Ga2GeAuSe6,32.3254,27.2787,-5.0467
ZrUNi,48.9231,48.917,-0.0061
NbCd2P,46.6416,41.2019,-5.4396
Rb2SrAcF6,11.5544,12.2964,0.742
BeInNi2,7.9676,10.9006,2.9331
CsSnO2,52.5491,42.563,-9.9862
Pr(BiSe2)2,37.1032,33.6816,-3.4216
NaYHg4,12.2503,9.5549,-2.6955
UMnNi,92.1444,82.8332,-9.3112
EuTcN3,14.7842,14.2793,-0.5049
Hf2ReRh,85.1899,64.0817,-21.1081
NaYHg6,8.937,6.9673,-1.9697
La2YHg,38.2958,27.1649,-11.1309
SmEr4Tm,29.0513,31.1919,2.1406
UTl2Ni,44.6422,46.9925,2.3503
ZnCrTcMo,32.3434,29.0572,-3.2862
LaRe6,42.5504,43.2268,0.6763
Na2YHg,22.8944,19.2664,-3.628
LaBeBr2,18.1827,14.5853,-3.5974
Pm2Be4AlGe3,13.8474,12.8219,-1.0255
Sm2GdSb,30.7132,31.0008,0.2877
LaYZnHg,27.0407,20.2764,-6.7643
Cr3Mo,0.8553,5.1835,4.3282
NaIn2Fe,20.7826,19.5172,-1.2653
Ba(In3Ni2)2,15.2342,14.97,-0.2642
Rh2WSe,46.4961,38.5136,-7.9824
Nb(NiRh)2,50.1822,41.0572,-9.1249
TmPaNb4,110.8701,95.0785,-15.7916
YHg2Mo,20.0646,14.7066,-5.358
Ce2FeGe6Ru,12.7483,12.0264,-0.7219
Cs2DyGaBr6,10.1928,12.4488,2.256
LaY2(TlHg)2,36.0705,30.6305,-5.44
Pu2FeTcGe6,22.4001,21.8317,-0.5685
ReNi3,26.4614,18.8462,-7.6152
YAlHg,25.2624,19.8667,-5.3957
TlCrSb,30.4282,27.259,-3.1692
ScRe,0.0,0.0,0.0
Pu(PaNi)2,34.4432,39.5008,5.0576
BaLa2Pr,24.7461,17.9461,-6.8
Ba4LaCu,10.8062,8.2196,-2.5866
Ac2MnPbO5,42.6727,40.8212,-1.8515
MnGaNi2O5,35.5652,31.9627,-3.6025
RbOs2O,16.5684,18.6028,2.0344
NpPS,43.9056,45.5469,1.6413
MnAl3Sn3Ge2,29.965,24.9939,-4.9712
Ta2W2F,39.1766,38.828,-0.3486
Sr4Ga2Ge,11.4256,12.5695,1.1439
Pm2YHg4,14.1478,13.1229,-1.0248
AcAs2PtRh5,46.2779,35.6367,-10.6411
PrGdPt2,49.8138,38.3139,-11.4998
RbCe(GaBr3)2,6.4245,8.5959,2.1714
YRe2Hg,33.0466,27.9627,-5.0838
Nd6Co2SBr3,23.9106,20.9422,-2.9684
KLaTi3,17.4152,14.8808,-2.5343
YRe2Hg,33.3299,27.9627,-5.3671
AcGa2Pd5Pt,30.8,27.7246,-3.0753
RbYHgO3,8.1308,8.3934,0.2626
PmGaPb2,34.7008,36.8552,2.1543
SiNi2Au,18.614,19.3159,0.702
Er3Tm4Th,34.768,37.0665,2.2985
YEr2(InHg)2,20.9724,20.6175,-0.3549
AcHoGa2Pt5,61.0853,46.5078,-14.5775
Pr4ScIn5,9.5292,10.2387,0.7095
SiNiAu,22.7601,22.3909,-0.3692
NaGaFe2,23.4915,18.7198,-4.7717
Y2ErHgO,32.7931,28.2069,-4.5862
RhW2Se,44.0516,40.978,-3.0737
Rb2Y(HgTe2)2,23.9315,21.997,-1.9345
BaCoTc2,44.8142,36.1832,-8.631
Nd2Ni2Pt,29.6681,26.7288,-2.9393
AcGa5PdPt2,37.848,30.1883,-7.6598
LuScInRh,27.5315,25.4,-2.1315
YHgRh,32.8911,23.909,-8.9821
YNiC2,64.9685,50.9829,-13.9855
HfTlTc2,95.2716,77.567,-17.7047
CaFePS2,41.9849,31.2352,-10.7497
YHgSb2,34.5973,26.6912,-7.9061
YHgRh,33.0825,23.909,-9.1735
LiEu2In,20.1698,20.5018,0.332
AlFeCo2,20.4232,13.5529,-6.8704
KBaSiP2,7.9537,7.7713,-0.1823
CdHgSe2,29.0495,24.8658,-4.1836
YCuHgPd,22.0164,18.9371,-3.0793
AcGe2Pt5Pb,64.2824,49.6248,-14.6576
Er3Tm4Tl,32.6194,35.3145,2.6951
Ni2Bi2Pb,30.2887,33.2007,2.912
YTaHg,40.7578,34.5024,-6.2555
Y2CuP2,24.4844,17.4146,-7.0698
Sm6P3S2I,24.3374,25.1766,0.8392
CsHf3Sc,93.6201,67.4432,-26.177
BAsC2,30.5212,23.3009,-7.2203
Y4AlHg,32.0182,24.351,-7.6672
YErZnHg,21.4535,19.4928,-1.9608
Na2RhPb,38.1921,32.596,-5.5961
Co2CuRu,24.7939,21.8501,-2.9438
Li3Sm2BeNi12,7.3128,8.9082,1.5954
Rb2ZrGaBr6,13.0217,12.539,-0.4827
AcEuSbPt,55.8571,48.2139,-7.6433
NaRu2Br,23.1873,20.3354,-2.8519
Pr2TmTe,10.3523,13.4542,3.102
YTcHg,82.0646,68.0161,-14.0485
TlCrRh2,39.7988,33.1084,-6.6904
TlCrRh,36.6889,31.9038,-4.7851
SrYIn3,19.9934,18.9536,-1.0398
NaPN2F,22.1042,17.7941,-4.3101
Cu2(BPt2)3,57.6163,39.9783,-17.638
TiSbTe2Pb,38.3232,35.4021,-2.9211
V(InRu)2,33.7097,31.5213,-2.1884
TiInRe,13.6798,20.7617,7.0819
ZrOs2Pb,59.0134,58.2222,-0.7913
TaTe2Br,33.8023,33.3926,-0.4097
InAsPb2,30.3658,32.6407,2.2749
YHgW,31.1035,27.7728,-3.3308
Tm2(CoB2)3,7.0374,9.3358,2.2983
CsNaCoO2,6.608,8.338,1.73
YHg2W,23.5641,20.8421,-2.722
InFe4Sn,8.8156,9.043,0.2274
Ac2CuPt6Rh,72.046,54.6771,-17.3689
K2CeF6,9.0003,9.2055,0.2051
PrPuOs4,38.9838,42.9857,4.0019
Er8Tl2In,32.3068,33.7173,1.4105
ScAlCo5P2,23.3938,18.5621,-4.8316
LiBe2Te,13.0105,11.6857,-1.3248
RbBe2TlNi,12.7598,13.5939,0.8341
YErHgIr,30.2136,29.7288,-0.4848
AcGa2HgPt5,58.348,43.148,-15.2
Nd2Y(InHg)2,19.5758,19.4284,-0.1474
MoPS2N,40.0418,30.5978,-9.4439
Rb2CeGaI6,13.0517,14.6914,1.6397
Cs2GaSbI6,20.4494,20.6353,0.1858
In2GaBiSe6,34.9321,31.2242,-3.7079
GaAg(SnSe3)2,32.9942,27.2417,-5.7525
Zr2Al2Pb,44.9829,41.1649,-3.818
Er4CuIr2,29.4775,32.916,3.4384
HoVRu2,47.1918,42.8727,-4.3192
Y2HgRu,29.2654,23.6856,-5.5798
YHg2Ru,16.6167,14.8077,-1.809
ScSeS2,45.8837,37.6909,-8.1927
GdYHgRu,23.6587,22.8776,-0.7811
TeIrOs,43.3399,46.2033,2.8634
CdHgTe2,23.2902,23.8091,0.5189
Ba2YHgRu,26.4528,22.7667,-3.6861
CdHgTe3,29.5491,28.1429,-1.4062
Er4IrPt3,52.5167,43.6249,-8.8918
Er4OsAu3,36.916,39.8115,2.8955
Fe4Sb3,36.4628,30.708,-5.7548
La4YHg5,25.1049,17.7294,-7.3755
YHgSe,32.1916,25.2054,-6.9862
Ba3AcPt2O9,14.9803,12.4486,-2.5317
GaSbMo,17.5028,17.6354,0.1327
Rb2(AgBr2)3,14.4318,12.3692,-2.0626
Ce2Y(InHg)2,19.7259,19.3089,-0.417
MnTcBi2,70.9938,62.3474,-8.6464
NaMnPt,67.6977,55.9951,-11.7026
Tc2NiS,55.815,45.6902,-10.1248
K2NaTc,34.4631,28.0745,-6.3886
SbRuW2,44.6643,40.725,-3.9393
Pm2IrPb,35.9958,38.7921,2.7963
SbRu2W,48.7944,39.8699,-8.9245
Pr3InNi,8.1312,7.0374,-1.0939
AsPd3I,18.0857,19.242,1.1564
Rb2YHg,14.1361,10.1614,-3.9747
SrAlPb,23.3597,25.1027,1.743
Rb(CuSn3)4,37.629,33.3418,-4.2872
TeIrPb2,47.8511,49.3239,1.4728
AgHgW,67.949,51.1436,-16.8053
IrOsPb2,48.4399,50.8155,2.3756
V2GaSb,77.9927,61.6304,-16.3624
AcCe2Si2Pt7,63.2516,46.7015,-16.5502
LiY2Hg4Pb,19.9447,16.9461,-2.9987
TeIrPb2,48.1648,49.3239,1.1591
TeIr2Os,43.2735,46.404,3.1305
AgHg2W,50.9599,38.6631,-12.2967
Ir3OsPb,48.0479,49.7105,1.6625
YSiHg,29.3684,25.075,-4.2934
TeIrOsPb,39.2253,44.0801,4.8548
Ag2HgW,58.9915,44.2963,-14.6952
Tc2RhSe,70.9453,57.1233,-13.822
KTcRhSe2,52.2354,41.095,-11.1404
Tm2Be3Si4Pt,33.546,26.0546,-7.4914
YSiHg2,22.0627,18.2883,-3.7744
Sm2Y(SnHg)2,20.7982,19.7324,-1.0658
BaMnRu3,32.7647,28.1778,-4.5868
TePb4Se3,49.1292,45.8445,-3.2847
ZrTi2Sn,42.9182,32.9534,-9.9648
TcRhSe2,59.5993,49.3139,-10.2854
Sr2Zn2I,10.6634,12.0903,1.4268
Nd2Tm2Tl,28.1256,31.3143,3.1887
Pm2TcGe6Rh,18.7528,17.4351,-1.3176
TcRh2Se,59.9949,46.7513,-13.2436
Ce2TcGe6Ru,14.754,15.4662,0.7123
Ni2GeAs,5.1379,2.02,-3.118
La2YCd2,27.1052,22.4709,-4.6344
NiGe3As,17.535,14.6933,-2.8417
BaMnRu2,33.8585,30.0186,-3.8399
Tm2AlSi4Pt3,42.3003,31.2974,-11.003
Sb3PtRh,55.3996,40.2269,-15.1727
VSb2Pt,77.1652,58.6735,-18.4918
AcLaBiPt,64.3035,54.8978,-9.4057
CoBi2SbO8,18.4235,18.6497,0.2261
HgTeIr4,36.5899,37.9302,1.3403
Rb2GaPt2,34.5418,27.4626,-7.0793
HfTc2I,88.5374,70.025,-18.5124
Nd2SmHg2,11.0234,14.4018,3.3783
KPr2SeO5,4.81,2.4398,-2.3702
CsNaTaOF5,12.4357,11.5635,-0.8722
LaZr2Mo,66.1152,54.6617,-11.4534
Ba2LiCoN,46.2172,39.6215,-6.5956
RbPaSb2,39.3728,36.2568,-3.116
Hf2CuPb2,73.9865,58.5044,-15.4821
ZrCo2AsS,42.9157,33.0292,-9.8865
H8Ir3Au2S,20.3804,20.6956,0.3152
HfB3Pb,41.1006,33.7439,-7.3568
MnCoIrN2,75.072,63.8979,-11.174
Y2MnHg,50.2009,33.9935,-16.2074
EuDy2As,23.2725,25.1213,1.8488
ScAsRhBr2,27.875,20.606,-7.269
HfThAu,85.5057,73.5403,-11.9654
ErPu3Au4,53.818,55.8853,2.0673
SrGa6Ag,11.6507,11.581,-0.0698
ErTh3Au4,51.4602,53.7463,2.2861
Y2MnHg,50.2003,33.9935,-16.2068
Nd3Y2Hg3,21.4805,19.1367,-2.3438
KSeBr3,10.3334,10.237,-0.0964
KSeI3,18.1432,17.8462,-0.297
YMnHg2,37.4575,28.3818,-9.0757
K2Zn3Sn5,12.1894,13.3817,1.1923
PmPr3Nd4,8.9253,11.7116,2.7863
Er4USb5,40.1481,36.4933,-3.6548
LiAlPb,22.6747,21.9751,-0.6996
HfMoPt,65.3807,48.0033,-17.3774
Sc2AuI,20.172,22.3359,2.1638
Nd2Tl2Pb,36.3922,39.3962,3.004
ScCu,5.7077,1.68,-4.0277
Y4Tl2GaHg,29.7202,27.2967,-2.4234
Ba2Be2Br,4.5798,4.3983,-0.1815
MnTeIrC2,63.7243,50.0231,-13.7012
NdYHg4,12.1945,10.7089,-1.4856
Nd7YHg2,22.5345,22.4158,-0.1187
AcPrTh,42.0056,45.157,3.1514
NbSn2Te,56.8349,50.7009,-6.134
U2GaSb,47.6154,47.3707,-0.2446
ScAu2S,43.4227,44.5885,1.1657
NbTe2Pb,70.0517,63.6399,-6.4117
BaTeRu3,20.5571,21.1003,0.5432
Gd2YMg,19.7991,21.3777,1.5786
Nb3SnPb,101.3879,85.9947,-15.3931
NbTe3Pb,64.2068,57.328,-6.8787
Re3AsPd,31.2156,33.8718,2.6562
ReAsPd2,21.9022,24.7899,2.8877
TbLuOs,33.7309,37.6268,3.8959
AlCrCoHg2,14.3628,8.7975,-5.5652
EuYMgHg,20.1294,17.8974,-2.232
CaMnRh,33.9285,23.5187,-10.4097
Nd4SiGe,14.529,16.9969,2.4679
MgSi2,0.0,1.7898,1.7898
Ti2BeSb,22.0022,18.403,-3.5992
MgSi2,0.1606,1.7898,1.6292
LiPr2Ru,29.3726,26.5003,-2.8723
Sr3(SiPb)2,37.2775,30.6608,-6.6167
Zr2RuN,67.0976,58.6546,-8.4431
NaPr2Sn4Pt3,35.9638,28.2135,-7.7503
Nd(DyPt)2,44.4633,36.4786,-7.9848
Er6Tm2Sc3In,23.0984,24.2603,1.1619
SrTePbI2,26.4806,27.8502,1.3696
Na2ReAg,32.0867,27.2653,-4.8214
Sc2Pd3,12.2854,12.3423,0.0569
RuPbAu2,41.3521,43.3988,2.0466
NaYHgCl6,17.6005,16.603,-0.9975
Hf3Pa,124.742,93.9855,-30.7564
Nd(ErTh)2,43.1133,47.1425,4.0292
PbWBr3,31.476,28.6241,-2.8519
TaNi2W,25.7528,28.2599,2.5072
CeNd2Pd,22.709,25.6304,2.9214
Pm4InSi,16.9621,18.9026,1.9405
Ac2NdPb2,46.6722,49.9894,3.3171
Pm2PrNd,17.4022,19.823,2.4208