Formula,E_hull_DFT (eV/atom),E_hull_ML (eV/atom),Delta (ML - DFT)
Ba4Sr7Ac,13.4104,14.267,0.8566
RePPt2,75.8074,55.2385,-20.5688
Y3Fe2Hg,21.7535,18.6064,-3.1471
Sr2Mg2Sb3,19.5088,17.2963,-2.2125
LiAc2ErTe5,34.7968,35.5388,0.742
CsTl3Zn,34.9236,36.0771,1.1535
RePPt2,76.0041,55.2385,-20.7655
NdGaPt2,52.2759,39.1858,-13.0901
YFeHg3,14.753,10.8675,-3.8855
Hf(TiFe)2,25.3312,18.7071,-6.6241
NaFeF2,17.7429,15.03,-2.7129
HfOsSe3,66.6201,52.4324,-14.1877
BaSrCaAc,22.5742,22.6821,0.1079
Cs2PuO4,15.5743,18.6178,3.0435
Cs6Ge2O7,5.5671,6.1977,0.6306
Cs2DyO3,5.5623,9.0655,3.5032
GdLuAu2,38.504,41.1414,2.6374
YLuZnHg,22.5219,21.3638,-1.1581
Th2RuPt,58.7861,54.3625,-4.4236
DyYZnHg,20.959,19.4497,-1.5093
ZrSn2Ru,38.9619,36.2722,-2.6897
CaAcLa3,40.9904,31.7678,-9.2226
Ac2Pm3Mg2,29.8315,32.4898,2.6583
Zr2GeOs,53.8899,49.1535,-4.7364
TbDyRu,23.0471,26.5083,3.4612
K2VBi,52.468,44.6946,-7.7734
LiSbMo,20.4292,18.7431,-1.6861
SmZrOs,37.0686,32.9538,-4.1148
Nb(NiGe)2,35.174,27.6681,-7.5059
Rb2Mg2S3,24.3051,18.7069,-5.5982
Pr2Nd5Er2,19.1734,22.4162,3.2429
MnNb2I,101.9992,84.5906,-17.4086
Ba6IrPd,7.4192,8.6448,1.2256
GeBiRhO6,5.9291,7.0228,1.0938
PtPbBr3,42.2779,33.9558,-8.3221
Sm2Mg2Sc3,10.1105,11.838,1.7275
Sn2Te2F,37.2441,34.0586,-3.1855
ZrMnOs2,61.166,58.5501,-2.6159
Sn2Pd5Pt,29.9284,24.7645,-5.164
LiPmNd2Te5,25.506,25.9707,0.4646
Ho3(MgTc)2,39.3936,36.7868,-2.6068
Ba2LiPaTe5,25.8479,25.5254,-0.3225
NaCaScSi2O7,23.98,20.7819,-3.1982
Ba2LiUTe5,26.0075,25.498,-0.5095
LiAc2BiTe5,38.373,38.614,0.241
Ba2LiHfTe5,34.5261,28.8729,-5.6532
NaVPb2,61.3115,54.607,-6.7045
Sr2CaTaIn,27.1285,21.6177,-5.5108
HfTaCo4,47.9621,37.7523,-10.2098
Cd2SiIr,24.5372,25.392,0.8548
K3Na5Tl2,24.6429,22.0413,-2.6016
CaTa3In,28.8472,31.0361,2.1889
Ca2TaIn,17.1494,19.021,1.8716
LiNd2UTe5,30.1322,30.476,0.3438
Zr2Ge2Pb,53.211,46.1214,-7.0897
Zr(GeOs)2,40.1448,38.7865,-1.3583
Zr3GeOs,70.0206,58.393,-11.6276
Zr2Si4Ir3Os,42.0161,36.2957,-5.7204
Rb3SrSn,8.1854,7.7416,-0.4438
Ac3ZnIn,40.4581,43.4559,2.9978
Ta2Al2W,23.9113,28.0308,4.1194
Pt3PbBr,73.2728,51.9881,-21.2847
RbSrSn3,16.2424,16.536,0.2936
Zr2Ti5Os2Pd,24.949,23.0583,-1.8906
Y6Hg3OsRu2,31.0725,25.8852,-5.1873
Li(TmPt)2,47.1148,37.5096,-9.6051
ZrCdGa2Os,35.7575,32.7047,-3.0528
Na2HgPbF6,9.5028,9.0985,-0.4043
MnGeP2S,35.5969,32.086,-3.5109
Tm2PdPt,34.798,31.0519,-3.7461
La3TlZn,38.4844,29.1953,-9.2891
BaGa2Os,17.4407,17.8967,0.456
LiScMo,12.7394,14.5373,1.7979
BaGaP,15.6669,12.8864,-2.7805
NdSm2(InPd)3,20.0426,22.0952,2.0526
SiIrOs3,38.112,39.2373,1.1253
Ba3GaP2,9.92,7.5822,-2.3377
BaCeGa3,7.682,8.7275,1.0454
YFeHg3,15.6008,10.8675,-4.7333
Ba3(GaRu)4,14.2162,12.6142,-1.602
Nd4BiPd15,20.3209,22.097,1.7761
ZrTaVOs,87.9602,75.4493,-12.5109
SmInPd2,14.1281,17.5248,3.3967
YFe2Hg,17.8766,14.2047,-3.672
BTePS2,34.3892,30.3521,-4.0372
SrFePb2,41.3595,39.0756,-2.2839
SrFePt,49.8542,36.1487,-13.7055
Cu2AsIr,17.0418,19.7273,2.6855
Sc4CuTe,17.0022,14.2758,-2.7265
Co3GeRh,16.3457,14.9332,-1.4125
ZrTiOs4,46.2214,45.1545,-1.0669
Tm3Sn3Pd2Pt,32.6549,28.6274,-4.0274
Ba(GaRu)2,14.2877,12.9572,-1.3305
LiScMo,0.4876,14.5373,14.0497
BaVGa3,32.4269,26.0004,-6.4266
LaTbErTh,43.4391,42.0107,-1.4284
K2TlRu,23.4168,23.7684,0.3516
Y2FeHg,26.7397,21.6541,-5.0856
YPu2ThP4,35.3559,34.8702,-0.4857
HfGeRh,66.6466,50.1346,-16.512
SmPu3Pd4,38.5192,40.9676,2.4483
GdBe13,0.0,0.042,0.042
LiLu(FeP)2,29.5746,25.8366,-3.738
La2ZrRu,54.7263,42.2558,-12.4705
CdPd3I,19.7756,20.8152,1.0396
GeOsRh3,40.8391,32.615,-8.2241
LaZrRu3,40.3921,33.864,-6.5282
Ba2SrGa2,6.9639,5.8356,-1.1283
DyYZnHg,20.9758,19.4497,-1.5261
BaVGa2Sb,40.3526,31.157,-9.1956
InAgPb,31.5472,31.7635,0.2163
P2IrOs,29.5317,31.2108,1.6791
BaGaPb,22.9634,22.3148,-0.6486
Ca2Ac2Mg3,20.9639,22.6946,1.7307
PIr2Os,39.9614,39.6635,-0.2979
PIr2Os,39.8307,39.6635,-0.1672
PrAsF,3.2395,4.732,1.4925
As2AuI,23.3161,24.2336,0.9175
CsSi2,10.4591,9.9586,-0.5005
Ca2BeSb,20.3099,14.229,-6.0809
CeNdGd2,27.2123,30.6033,3.3909
Ni2Pd2Pb,20.4013,22.5335,2.1322
MnGe2Rh,41.5835,34.9713,-6.6122
ZrBPS2,44.66,37.3126,-7.3474
GaAgPb,27.7518,22.1139,-5.6379
NaCaFe3,26.5349,19.9061,-6.6288
P2IrOs,29.7612,31.2108,1.4496
LiYHf,35.4442,26.237,-9.2072
Ba2Ga4Sn3Pb,16.3354,15.7935,-0.5418
Pu(TaIr4)3,43.4297,46.9867,3.557
Li2CeIn2,14.8478,14.3159,-0.532
RbBa2ZrGa,23.9235,18.3302,-5.5934
Ba2GaSi,7.9479,5.7708,-2.1771
HfTc3Ni,87.7965,70.5169,-17.2796
Zr2TiOs2,48.7196,42.6919,-6.0277
BaGaC3,41.7741,28.6212,-13.1529
Re2NiAs,35.5441,28.7814,-6.7627
RbGe2Mo,11.4006,11.2909,-0.1097
SrNiC2,39.272,28.2934,-10.9786
LiSi3Pb,24.5044,20.2091,-4.2953
GaRuAu3,35.0999,35.4463,0.3463
YHfS2,59.3035,43.9723,-15.3312
Os2AuBr,37.109,38.8875,1.7786
SrCeCd4,20.6165,20.0367,-0.5799
CuPRu2,15.4082,16.3748,0.9666
ZrOs2Pt,59.0695,52.2031,-6.8664
Ba2YCdHg6,12.7126,11.0938,-1.6188
CsCa3O,27.1483,23.9542,-3.1941
CeFePb2,29.1811,30.7386,1.5575
TlRhBr4,25.0634,23.2118,-1.8515
SbSeO3,31.644,26.7843,-4.8596
Nd6CoNi2I3,25.1779,24.3753,-0.8026
AlGa7,7.7522,8.4996,0.7474
Zn2Fe2Bi,17.5708,16.1933,-1.3775
Sc2TaRe2,77.1312,66.3111,-10.8202
EuIrF6,14.2551,13.264,-0.9911
ZnCr2,3.9271,4.034,0.1069
AlCuMo,23.9005,17.7155,-6.185
ZrRuF2,25.2287,21.4516,-3.7772
Zr2OsPtSe,75.6491,59.3819,-16.2672
CuTcRh2,49.7211,40.6132,-9.1079
Cr(NiSb)2,28.7682,23.9734,-4.7948
EuUF6,15.3701,16.3335,0.9633
SrFeRu2,29.65,24.5985,-5.0515
CuNi2Ir,15.7749,19.5392,3.7643
CaEr2In,20.7085,22.5386,1.8301
Nb2CdB,79.7038,65.3082,-14.3956
TlRhBr2,30.5898,27.6588,-2.9311
CsScCu2,23.9284,20.9565,-2.9719
TlRh2Br,40.6291,33.6004,-7.0286
NaNb2TlCd,77.1946,65.0805,-12.1141
GaCuOs2,20.6046,25.6208,5.0162
Nb2SnB,76.0992,66.075,-10.0243
In2SnSe,27.023,25.9315,-1.0915
Tm3ZnPt,32.357,29.0443,-3.3126
NaCrI2Cl,20.4473,18.69,-1.7572
Ca2Co2Os,12.8143,13.1589,0.3446
PPdRuN,27.1101,25.6083,-1.5018
Li(AcAl)2,25.5736,28.3732,2.7996
Li(CdSn)2,16.0026,17.0494,1.0468
BaAc3,48.4534,51.207,2.7537
NbSn2Pt,62.3617,52.4422,-9.9195
HfScHg4,24.4881,18.571,-5.917
K2SbIr,28.7308,27.3251,-1.4057
Zr3ZnIn,58.1323,47.6045,-10.5278
Zr3NbZn,81.3413,65.6125,-15.7288
BaSr7,11.7808,12.6277,0.8469
BeSbAu3,37.5051,36.43,-1.075
TlVPS2,61.4858,51.9004,-9.5854
BaSr7,11.7828,12.6277,0.8449
Sr3Au,13.9488,18.2844,4.3356
Sr2TaNb,60.81,49.1267,-11.6833
SrVSn3,42.2658,36.6513,-5.6146
CeRuN2,34.2679,32.8544,-1.4135
Ho2Ge4Rh3,26.0417,23.2574,-2.7843
PuZn3Ir,30.6382,29.3981,-1.2401
IrRu2Br,31.7291,27.888,-3.8411
BPt4,65.3799,43.8878,-21.4922
NaZrOs2,52.287,48.5406,-3.7464
SrTaFe,32.7327,29.8099,-2.9229
InSi2Ru,20.1449,16.3232,-3.8217
BaSr3I8,16.9866,17.7113,0.7247
Y(Er2Hg)2,23.9795,24.0279,0.0484
InSi2Ru,19.8067,16.3232,-3.4835
La2PrAs,26.6806,19.7312,-6.9494
PrYHg2,10.8689,9.3859,-1.483
Dy2Al2GeRh5,28.045,22.5304,-5.5147
YZnHgPd2,19.4192,17.3199,-2.0993
Ce2IrPb,35.9422,39.4388,3.4967
Na2Tl3Sn2,34.6347,33.6996,-0.9352
Nd7GaI12,21.586,22.1888,0.6028
Tl3AgAu,46.5277,45.7816,-0.7461
LaCuNi2,12.4801,11.5131,-0.967
Nb(SnBr)2,41.688,37.5126,-4.1754
InGa3Tc,27.6584,25.833,-1.8254
ScReBi2,55.1337,50.2346,-4.8992
ZrCrSb3,48.9968,37.9677,-11.0291
Sr6IrAu,23.3486,22.0363,-1.3123
Re2HgBr,24.4462,25.7216,1.2754
Nb3BBr,87.9605,72.2408,-15.7197
TlRh2Br,36.2824,33.6004,-2.682
Tl5(Hg4I)3,12.9316,13.982,1.0504
ZrZnSnOs,42.0455,39.3089,-2.7366
Ba(TlPd)2,23.6498,25.9443,2.2944
CsLa3O,47.6997,37.5156,-10.1841
Pa2RuPt,60.053,57.4295,-2.6235
Sr3ThPt8,67.6243,49.2497,-18.3746
Zr2TaReOs,64.2274,57.2008,-7.0266
CsRbGe2,11.046,11.4371,0.3911
Nb2Fe3B2,40.2675,35.1249,-5.1427
SrAc2IrPt,52.2884,45.2743,-7.0141
ThPaGa5Os2,28.5877,30.9553,2.3676
Y6HgOs2,21.127,19.9659,-1.1611
LuZrNiOs,44.5858,42.9853,-1.6005
Pu3ScTl3S8,56.4883,48.8546,-7.6337
Zr2TlAg,69.7014,58.6321,-11.0694
CsZrO3,1.5723,4.1021,2.5298
ZrTl2Ag,57.984,52.4472,-5.5368
V3OsI,92.3238,74.7429,-17.5809
ZrTlAg2,53.1029,45.4585,-7.6444
Ca2PtF,25.7323,19.2486,-6.4838
BeCr2Bi,13.0064,14.403,1.3966
BeCr2Cd,5.8504,6.001,0.1506
Nd4NiCI2,25.8035,25.2589,-0.5446
MnCoP2S,43.0469,34.7296,-8.3173
SrYHg,21.1686,17.9934,-3.1752
Au2CI,42.0619,38.707,-3.3549
Sm2Mg2Al,11.4814,14.0356,2.5542
Sc2Mo,20.8569,22.3143,1.4574
Ba2Mg2Pt,18.536,11.3099,-7.2261
BeCu,0.0,0.3391,0.3391
Er4Cu2Tc,31.8413,32.721,0.8797
Rb(GeTe)2,22.019,19.8751,-2.1439
TlAgAu2,44.2536,43.6995,-0.5541
Cs2K3NpO6,11.3762,12.998,1.6218
Rb3GeTe,12.4823,10.344,-2.1383
Zn(GeTe)2,22.375,21.418,-0.9569
LaPrF,17.1535,11.7654,-5.3881
ZnGeTe,16.9235,17.8203,0.8968
CrSb2Ir,37.0674,31.861,-5.2064
LiTm2Si4Ir3,26.3984,25.0172,-1.3813
CsAc(AsPt2)2,57.7554,43.7301,-14.0253
CrSbRh2,37.7509,28.1766,-9.5743
Mg3(TlSn)2,21.5069,22.7314,1.2245
LuPN2,25.6781,23.5287,-2.1494
In2Pb2Se,35.4205,34.7837,-0.6369
Nb6GaB,109.4733,89.6401,-19.8332
HfCuTe2,53.2982,44.2711,-9.0271
Mn3NbB,90.243,73.0732,-17.1699
SrSmGd,22.7222,25.2279,2.5057
YGaHg,15.3622,14.219,-1.1433
HfSnP2S,46.292,38.4045,-7.8876
BaZnCd3,11.3635,12.7295,1.366
TcNiBi3,53.4755,51.4251,-2.0504
Cs2YHgCl6,21.2461,22.382,1.1359
Nd6GaOs2I3,25.1059,27.0746,1.9687
AcEuYHg,35.8612,34.247,-1.6142
NbB3Rh,43.2857,37.3073,-5.9784
PmYHgRu,28.999,24.8038,-4.1951
CaPm2YHg4,12.507,12.5275,0.0205
InFeTe2,29.3058,25.5549,-3.7509
BaSr11,12.3421,13.2526,0.9105
NaCaHoTl,27.086,27.526,0.4399
NaAlTlCd,24.4621,24.4143,-0.0478
RuSe2SN,54.6578,43.4229,-11.235
LiDyYEr,17.9382,20.6793,2.7411
NaCoOs,18.9669,23.0199,4.053
Sr2Sm(Cd3Rh2)3,29.6092,24.2078,-5.4015
InGa2Cl,7.4691,9.264,1.7949
ZnIn4Ru,17.8439,18.8331,0.9892
ZnSbTe,31.6732,27.8885,-3.7847
POs4Se,37.8196,38.4741,0.6545
PrY2Hg,23.9554,19.356,-4.5995
Pr3Sm5Sn2,10.4288,13.6886,3.2598
Y(Nb2Te)2,96.2858,79.8217,-16.464
Sm5CuSn3,25.9099,26.477,0.567
Sr2PdPtPb2,34.942,31.5939,-3.3481
GdThBeZn,31.5704,31.0346,-0.5358
Ba3Al3Ge2Au,20.972,17.5424,-3.4295
In3Bi3I,32.3011,33.2246,0.9235
Zn2SbTe,25.7392,22.7856,-2.9535
ZnSb2Te,35.1296,29.4031,-5.7265
CeCu7Se6,25.361,21.8841,-3.4768
Co2GePb,15.9991,16.908,0.909
Sc2HgAs,17.3164,14.7518,-2.5645
Tb8Cu4Ir3Ru,24.6863,25.6149,0.9286
GdZrBeZn,39.6082,32.9763,-6.6319
SbBr,40.9243,37.8843,-3.04
ZnInPb2,33.2382,35.4967,2.2585
NaCoW2,22.6838,26.8571,4.1733
Zn(WC)2,34.6215,29.9308,-4.6907
SmY2ScHg4,15.8503,14.1561,-1.6942
Cs2K2Te,20.6774,19.75,-0.9274
YErNiHg,48.4858,44.2853,-4.2006
K3BiI6,19.0865,19.6769,0.5904
Sc4InTc,41.1058,36.8929,-4.2129
YRuBr,31.5933,28.6093,-2.984
HfCu2Au,51.0029,42.0785,-8.9244
Ru3WBr,44.9396,33.4135,-11.526
SrFeTe2,35.4234,31.0047,-4.4187
LiPrYHg,13.2039,11.0005,-2.2034
HoTm4Cu5,18.1758,20.449,2.2732
ThUGa5Os2,28.9764,30.6808,1.7044
HfZr3In,83.9594,64.2827,-19.6767
PuHfZr3,92.2526,75.5704,-16.6822
NaNdYHg,24.8714,22.0776,-2.7938
PmGdBeNi,17.0461,18.2263,1.1802
Nd8GeIr3Cl4,20.9715,22.2567,1.2852
AcSmCu4,19.2093,21.5828,2.3736
YInHgAu2,33.1499,31.435,-1.7149
POsRuS,22.6465,26.9914,4.3449
Pr2In2Ni15,9.4706,9.352,-0.1186
In2SbRh,33.3463,29.7016,-3.6447
LiNd2Ge4Ir3,21.0023,23.0907,2.0884
Nb3BPd,90.6952,74.6396,-16.0557
NbPd3,41.4724,38.2001,-3.2723
CsGdO2,2.864,7.3879,4.5238
Th2GaCu3,22.2659,25.2523,2.9863
SrTl2Fe,40.4462,37.9192,-2.5271
Na2TlCu,24.8157,24.1619,-0.6538
PmGa5Pt2Rh,32.2862,24.8636,-7.4225
Th6CuTc2Te3,58.9525,57.0545,-1.898
LiHg,4.4753,4.7748,0.2995
CsRb3Re,15.722,15.0214,-0.7006
Y3HgCl,52.4104,46.662,-5.7484
ZrSbPb2,58.2371,52.731,-5.5061
LiHg,3.0076,4.7748,1.7671
Sr2CeCu2Se5,29.7247,26.6738,-3.0509
CsZr3O,66.4875,52.8972,-13.5903
SrNdPd,18.2451,20.3561,2.1111
Nd4TmSc,22.4204,25.266,2.8456
YNiHg3,33.1011,28.5102,-4.5909
Tb4NdSc,22.8851,25.5123,2.6272
K(Cu2As)6,8.0972,8.5051,0.4079
Ta3MoBr,28.9788,30.9455,1.9667
In2PdCl,11.7135,14.4023,2.6889
CaRh3Se,58.338,43.0233,-15.3147
Er4NpSb5,40.2853,36.6236,-3.6616
LiTm4ScS8,42.4154,35.0113,-7.4041
W3Se,41.35,45.056,3.706
CaRh2Se,58.6141,45.149,-13.4651
YRh2S,34.7672,26.0326,-8.7347
HfScPd4,38.617,31.8913,-6.7257
CdSi2Ag,20.4458,16.5868,-3.859
Zr2CdSi,57.2981,45.9874,-11.3107
Hf2NbAs,101.3426,78.4282,-22.9144
NaW3Au,40.32,41.4764,1.1563
CdSi2Ag,20.3221,16.5868,-3.7353
CrPd3I,17.8165,18.2269,0.4105
TlCrI2N,28.7553,26.8186,-1.9367
Co2Ni3Pt,38.52,27.5627,-10.9573
CsRbTe3,30.6114,28.5046,-2.1068
GeP2IrS,29.811,27.5051,-2.3059
MoAsBr2,12.6309,13.7294,1.0984
GaTeIr2,29.056,33.1182,4.0622
CsRbTe2,27.3644,26.4923,-0.8721
CdSiAg2,24.2995,21.0539,-3.2456
LaPr2Sc,11.8305,9.0255,-2.805
Li2CoPt,24.4003,17.656,-6.7442
LiTbYPd,22.9807,22.1174,-0.8633
MoC3Br,43.8847,32.3779,-11.5067
ScSnPd4,20.7746,20.3737,-0.4009
Cd2SiAg,21.3573,18.5072,-2.8501
SrFeW2,36.3996,34.6311,-1.7685
CrSnIN2,26.4625,21.903,-4.5595
CuSb3Te,37.1292,30.2319,-6.8973
Pu2TlI,54.2631,55.6218,1.3587
GaSbIN2,17.9391,14.9841,-2.955
TlSb2Te,42.8063,37.7567,-5.0495
HfZrPt3,93.3549,64.3965,-28.9584
CdSi2Ag,17.4311,16.5868,-0.8443
HfZrPa3,79.9675,73.1626,-6.8048
Na3(SrAu)2,27.6069,26.1073,-1.4996
NiSeI3,25.1181,23.3102,-1.8079
Y2NiHgO,59.8907,50.275,-9.6157
MnInPd,33.7732,31.2148,-2.5583
LaZrBi3,45.3784,42.2662,-3.1122
CsGe2C,27.7701,23.7452,-4.025
RbNiI6,17.9625,18.8278,0.8654
AcYNiHg,57.411,52.8851,-4.5259
Tl2IBr,33.2933,34.1899,0.8966
Rb3MoBr8,8.6005,9.1532,0.5527
TiMoBr3,11.6649,12.1882,0.5233
ScAsW2,35.8863,33.8529,-2.0334
LaMoBr3,20.1567,16.7463,-3.4104
RbNiSb3,34.3408,25.9023,-8.4385
ScTiTe4,25.0342,25.8073,0.7731
YErHgTe,29.6466,27.7653,-1.8812
Na3(TlPb)2,39.9812,38.2688,-1.7123
Cs3(NaHg)2,14.2955,13.4752,-0.8202
Na3(BiSb)2,38.7952,34.1841,-4.611
Ba3(MnSn)4,43.5356,37.1704,-6.3652
PrGaNiN,5.9697,5.4043,-0.5653
ScBi2S,47.304,47.2451,-0.0589
Na2In2Sn3,21.5242,20.7002,-0.824
TmW2,5.8427,21.5978,15.755
YHgIrO2,27.1883,25.6043,-1.584
CrOs2Rh,26.8553,28.0655,1.2102
GdInSb,23.0474,22.7601,-0.2873
Cs2KSe,26.5532,24.7499,-1.8032
LiPBr2,13.1723,12.1289,-1.0434
Re2TeOs,41.5695,46.576,5.0065
SrYInHg,20.4624,18.6874,-1.7749
Cs3TaTe4,21.1495,23.813,2.6636
ZrFe2Pb,36.4807,30.5912,-5.8896
MnPtI2N,49.0462,40.3912,-8.655
YbGa4Ru,10.0948,12.3749,2.2802
Mo2IrPbF,34.5012,30.1917,-4.3095
Re3TeOs,42.8854,43.665,0.7795
LiPBr,13.1533,13.1256,-0.0277
CsTl2Sn,36.65,37.9782,1.3282
LaY2HgRu,33.6388,25.4572,-8.1816
P2WSF,70.4128,57.8751,-12.5377
Mg2MnH8Pt,17.9339,13.6575,-4.2764
SrTb(CuGe)4,10.0806,11.56,1.4794
Rb2(CuSe)3,16.8948,13.9933,-2.9015
Rb(InP)2,15.085,12.9843,-2.1007
RbTe,10.2227,9.438,-0.7848
Cs2Ge2O3,10.0686,9.9417,-0.1268
NdMnSb2,46.7616,39.542,-7.2196
Li2PBr,18.2655,13.842,-4.4235
Sr2IrI,23.5727,22.1994,-1.3733
YHgPd,0.0,2.6974,2.6974
CaCrSn,8.5788,7.5732,-1.0055
GdTiRh2,32.398,27.8994,-4.4986
Er4Cu3Sb8,32.5045,28.0479,-4.4566
LaYTc2Hg,79.1506,64.9692,-14.1814
MnSeI2N,40.6081,33.7513,-6.8568
Cs2TiCuRh,23.1684,20.3097,-2.8587
Na(TiRh)2,24.0204,18.9974,-5.023
RbTe,12.8262,9.438,-3.3882
Ti6RhPb2,20.321,20.7664,0.4454
RhWAu,45.1254,43.0763,-2.0491
K(ThZn)2,32.0091,33.2269,1.2178
LaScCr,32.9493,23.7501,-9.1992
MnTlTe2,54.0851,49.1757,-4.9094
La2ScCr,37.6772,26.6013,-11.076
YHgTe2,32.9551,28.8309,-4.1243
In3Ag2Au7,37.7389,37.549,-0.1899
SrSiIrO6,19.534,16.3031,-3.2309
MnTlTe2,53.7607,49.1757,-4.5851
Nd4Ga2I5,19.982,21.1748,1.1928
PrFe2Sn7,18.4318,17.9634,-0.4684
MnTlTe2,58.8672,49.1757,-9.6915
PrNbTe2,54.9376,48.6778,-6.2598
YPa(CuGe)2,26.9419,26.4812,-0.4606
TiAlRh2,26.663,20.3549,-6.3081
Hf5TiRh4,91.2934,65.5923,-25.7011
TiRhBr3,17.9531,14.9908,-2.9623
DyNp(CuGe)2,21.191,23.6296,2.4387
PaPS,42.5684,45.243,2.6746
V2RuS,74.7121,59.9864,-14.7257
SmYHgTe,28.5221,26.6743,-1.8478
TiAl4CuRh2,15.6894,12.9491,-2.7403
Dy3CuRu2,20.6673,22.171,1.5038
Sc6NiSb2,16.3025,14.4418,-1.8607
Hf2Nb2In3,90.016,71.4911,-18.525
Sc6TlBi3,18.517,20.8996,2.3826
Sc3In5Te12,20.3489,18.4732,-1.8756
LiV2In,66.2896,53.6243,-12.6653
Cs2AlNi,12.2683,15.1801,2.9118
SmY2Hf,49.3479,41.2698,-8.0781
LiTiRh3,30.9678,22.016,-8.9519
FeTePt2,56.0654,43.2556,-12.8098
TiTeRh2,29.4966,24.1352,-5.3614
SrFe2,14.4611,13.1888,-1.2723
TiP2Rh,14.8018,13.9144,-0.8874
TiPRh2,19.2678,15.755,-3.5129
KSeBrN2,16.284,14.1124,-2.1716
Ca2TeIr,30.7713,27.0186,-3.7526
TiSiRh2,35.35,28.3551,-6.9949
YErHgPb,32.6646,31.5051,-1.1595
Rb2YHgCl6,13.1258,13.8719,0.7462
Nb2In2Ru3,52.8595,47.4236,-5.4359
Ti(SiRh2)2,40.6744,29.3154,-11.359
TiRhBr2,19.4112,16.9848,-2.4264
Sc3MnSe6,32.8811,26.9586,-5.9225
Sc2Be15Ir2,8.3981,7.4966,-0.9015
CaMg2TcH6,12.3653,10.1499,-2.2154
Nb3(PdRh)2,79.5069,65.3448,-14.1621
AcMg(H3Pt)2,21.0647,16.0666,-4.9982
BaHfCu3,34.2062,25.5846,-8.6215
Nb2CuB,83.0699,67.3472,-15.7227
Nb3(OsRu)2,77.2652,68.1157,-9.1495
Nb3(RuPt)2,90.5654,72.3838,-18.1815
Pr3In3Ni2,14.1906,12.1022,-2.0884
CaY2ZnHg4,14.4917,11.6446,-2.8471
Rb3La2ScS6,39.2991,29.4368,-9.8622
ZnHgPt,32.183,23.0661,-9.1169
Pu2Nb2Ru3,68.0072,62.8125,-5.1948
NaGd(CuAs)2,13.9185,15.4429,1.5244
CuSnPb,56.9717,51.9666,-5.0051
CuPRh2,31.627,23.673,-7.954
PrGe3Au,14.0189,15.2929,1.2739
Pm4Er3Ir4,32.2841,34.5916,2.3075
YPuOsRh,44.9059,43.7782,-1.1277
Ga2AgPb,22.2916,22.5178,0.2262
Li4PrDy,4.1877,5.6147,1.427
Nb3(ReW)2,82.9604,75.0093,-7.9511
NbZn2B,40.5026,35.3603,-5.1423
Nb(BBr)2,30.658,25.635,-5.0231
Cu(GeRu)2,5.8974,9.1129,3.2155
Al2V7Ga3,77.7983,61.4165,-16.3818
Na2Al2Ag,14.9013,12.7792,-2.1221
LiNb2B,64.6488,57.1229,-7.5259
LaY3Hg2,29.0564,21.2731,-7.7834
TaFeTe,27.0993,28.6637,1.5644
Na(Ag2Pb)2,36.4737,32.6567,-3.817
Tl2IN,30.0567,30.4815,0.4248
Hf2AsPd,69.8259,52.2068,-17.6191
Y3Hg2Pd,28.3157,22.6034,-5.7123
In2MoAs,12.2654,15.6323,3.367
AlTcGe,47.9102,41.2108,-6.6994
YHgBiP2,26.788,22.4805,-4.3075
GdAsPd,0.0,6.2732,6.2732
NbInB2,35.7007,33.5884,-2.1124
Al3V7W2,82.4872,66.32,-16.1673
ReTcPt,74.2302,62.511,-11.7192
Ba2SrPb,13.93,17.0093,3.0793
Ho3Ga3CuPd2,4.9334,8.3067,3.3732
PaCdSn2,31.7683,33.9286,2.1603
NiBiC,41.2998,36.8394,-4.4603
SrCdSn3,21.8358,20.29,-1.5458
Y2TmHf,50.7529,42.2561,-8.4967
AlZn2Mo,13.3274,12.3894,-0.9381
Ni3Pt5Rh2,50.9049,34.6606,-16.2444
Na(CuBi)2,26.1445,26.806,0.6615
NbVB,62.7412,54.083,-8.6582
U2FeRu,56.0649,51.8536,-4.2113
Y3Hg3Pd2,23.7037,18.8389,-4.8648
TbHfSc4,31.7836,27.163,-4.6206
YThSnHg,35.432,33.1172,-2.3148
Zr2ScSe2,51.5597,40.641,-10.9188
Na2SbPb,36.4919,32.1351,-4.3568
Na(InCu)2,15.6128,15.7,0.0872
DyTh(CuGe)4,15.251,17.1765,1.9255
CaYHg2,13.276,11.3686,-1.9074
Nb2HgB,64.5198,55.2763,-9.2434
Ta2FeTe,29.2332,31.4164,2.1832
ScGaI,6.7691,10.8169,4.0478
AlBiBr2,20.3266,21.4,1.0735
La2Y2ErHg5,19.6866,15.2849,-4.4017
BaScCuGe2,19.8302,16.8039,-3.0263
BaBeCu2Ge,8.5422,7.3103,-1.2319
ThScAu4,42.6944,45.3347,2.6403
PrZrIn,37.6557,33.0556,-4.6001
Be2PPt4,52.2468,35.3158,-16.931
SmScAg4,25.6455,22.637,-3.0085
CdSiTc2,49.2183,42.5474,-6.6709
Tm(MgPb)2,25.2393,27.3841,2.1448
Cs2RuO6,15.3707,15.4389,0.0682
VPbC2,69.5579,55.4171,-14.1409
CsAc2(AuO3)2,25.2341,25.991,0.7569
Ti2HgOs2,10.7525,16.3678,5.6153
ScGaBr,3.8403,6.8018,2.9616
Sr2NdCu4,11.0697,14.0933,3.0236
BaSrPb3,34.3745,35.6385,1.264
AlRhW2,23.7453,26.9851,3.2398
CsRbNbAs2,53.94,45.948,-7.9919
NaLi3F4,5.0451,4.4235,-0.6216
Ca2MgRu2,4.8051,7.6633,2.8582
Ba2SbPdN,19.6089,16.0849,-3.5239
LiFePO4,13.2051,12.9033,-0.3019
Ac2Nd2Ir3,36.6327,41.6436,5.0109
CsPaTe,40.7346,41.2074,0.4727
PmZr2Ru,65.9793,54.9034,-11.0759
BaInSb,21.301,19.5786,-1.7224
Zr2AlNi,44.1451,40.3896,-3.7555
Cs3TlO3,5.2974,8.0472,2.7499
Pm3(NdHg)2,17.3811,19.9644,2.5833
MnCu4Pb,30.0002,28.4347,-1.5655
Ca2SnPb,17.4556,20.7744,3.3188
Sm7Sn3C2,29.3231,27.414,-1.909
YErHg5,10.997,10.1762,-0.8208
YTl2B,71.6307,65.6399,-5.9909
CdSi2Tc,36.0822,30.0518,-6.0305
KBi3Rh,32.0411,32.5624,0.5213
YVRu3,42.1582,34.4185,-7.7397
Tb2Nd2Th3,43.026,46.9454,3.9194
CdSiTc2,55.2654,42.5474,-12.7181
Nd2Sm2Pt3,45.2722,35.019,-10.2532
Ac2Nd2Sm3,36.3443,38.8553,2.511
CdSiTc,42.7713,36.8695,-5.9018
TcGe3Ru,28.2961,26.6904,-1.6057
LaPr4Sc,6.3041,5.4512,-0.8529
NiSnPt2,51.7845,36.1063,-15.6782
CuRuS2N,47.6185,37.6915,-9.9269
ScGaSn,21.7517,18.7344,-3.0173
Co(NiRu)2,18.4503,17.1891,-1.2612
Ac3(TbNd)2,42.3492,45.0054,2.6562
NaLiGeO3,9.8294,10.4948,0.6654
PrMg2TaH6,6.0152,5.8636,-0.1516
ScSbMo2,29.2922,28.0259,-1.2663
Ta2CrAs,48.6309,42.488,-6.1429
K2(TcSe2)3,35.9943,29.8433,-6.1509
Pa2Si3TcIr4,43.7823,42.4833,-1.299
Ac2Tb3Nd2,37.0367,39.6025,2.5658
BaMg2Si,4.9322,3.5107,-1.4215
ScSbMo2,29.076,28.0259,-1.0501
DyTh2Si3Ir4,36.8191,37.0342,0.2151
ScTaAs,89.0765,76.6019,-12.4746
Sc2NiBr,3.0079,5.1272,2.1192
Nd8Ga3PI4,21.0283,21.4769,0.4486
Na3CrH6,4.7503,5.4203,0.67
YHgCl2,39.7384,40.9766,1.2382
Nd3Ge13Ir4,11.8975,13.6523,1.7548
Cu5NiAs,12.675,11.9864,-0.6886
ScSb2Mo,36.2499,27.4242,-8.8257
Ba2CuSbN,10.4221,9.3211,-1.101
ScSb2Mo,36.1371,27.4242,-8.7129