Formula,E_hull_DFT (eV/atom),E_hull_ML (eV/atom),Delta (ML - DFT)
AcTh(SiPt2)2,63.8576,49.0901,-14.7675
Re2AgMo,35.2714,34.3411,-0.9303
Er2Ni4GeP3,16.7985,16.2286,-0.5699
RbGaNi3,7.7801,8.3892,0.6091
NaSiPS2,34.2265,26.039,-8.1875
ReAgMo,33.429,31.2357,-2.1933
Fe3Co3Pt,10.6906,4.8507,-5.84
Zn(FeCo)3,2.3827,0.0,-2.3827
CaYCo,35.0273,29.1416,-5.8857
PrMnRh2,47.9113,35.5209,-12.3905
CeGa2Re,13.6642,18.4463,4.7821
Ce3NiGe3,11.3247,13.7256,2.4009
ReOs2O,40.8846,42.4935,1.609
TlCdCoSb2,34.2627,29.9092,-4.3535
TaBiRu,35.8371,40.1132,4.2761
LaNd2(YHo)2,26.5596,26.1285,-0.431
PmYAlAg,33.062,27.1482,-5.9139
Ac3VCu2O9,20.8131,20.5073,-0.3058
Nd2Y6Ho3Zr,26.3582,26.3739,0.0157
NaThAg2,38.3518,34.1203,-4.2316
BaBe2Al,14.673,10.1606,-4.5124
Ta2CdSn,22.591,29.087,6.496
BeReP4,24.2719,19.1513,-5.1206
CoNi,19.3231,12.3373,-6.9858
Hf(ZrTl)2,88.456,73.9753,-14.4807
Na2TaCdSn,26.0706,24.6493,-1.4213
AcCu5Pd7,16.8049,18.4418,1.6369
Y2Ge4Ru3,16.1438,15.043,-1.1008
Nd2NiP2,8.4012,12.7872,4.386
BeTeSe3,38.3634,31.8202,-6.5432
Ba4MnHg,17.1707,13.4,-3.7707
Sn2OsW,88.3768,72.705,-15.6719
Nd3Y2HoS6,37.2207,30.4817,-6.739
Nd2BeNi3P4,13.3585,12.8524,-0.5061
Cd5InHg7,8.0523,8.7929,0.7406
AcBPt2,47.0545,38.2299,-8.8246
SrHg6,1.427,1.94,0.5129
Na3(ZnSn)4,16.9415,16.0666,-0.8748
BeTe2Se,33.5167,30.4492,-3.0675
NdNi4SnP2,18.9108,16.885,-2.0258
NdYHoAl,32.562,29.4805,-3.0815
BeReP2,32.7296,26.5023,-6.2273
AcTl2(OsO4)3,15.5938,18.8183,3.2245
PuCo4Hg,16.0079,18.3148,2.3069
Sc4TaIr,58.8253,47.1753,-11.65
Zr2Nb2Tc,114.3774,95.1641,-19.2133
Pm4NiPb2,29.7183,31.4584,1.7401
ZrRuBr3,34.2306,28.4234,-5.8072
Ac4SiPtBr2,47.7763,44.1869,-3.5894
ZrRu2Br,40.6929,35.2247,-5.4682
SrZnSb2Te,30.4341,26.3078,-4.1263
InCuNi5,8.4262,10.192,1.7658
Zr2NbIn2,68.7808,59.7971,-8.9837
CeDyYHo,23.7803,26.8271,3.0468
Tb(NdBi)3,21.4309,26.0259,4.5951
Tl7CdHg5,28.7368,29.1927,0.4559
Tl4SiRu,42.2982,40.3799,-1.9184
Ag(GeMo)2,9.7059,12.3891,2.6832
Sc5Ga4Tc,29.6536,27.0902,-2.5634
Hf2NbSe,119.3839,90.3449,-29.0389
Th3Fe3Sn,23.5608,28.7108,5.15
Hf(ZrSb)2,78.0541,60.457,-17.5971
BeTcTe,46.1405,40.5247,-5.6158
BeTc3Te,65.134,54.9722,-10.1617
BeTc3Te,66.505,54.9722,-11.5327
Be2TcTe,34.9757,30.8226,-4.1532
Ba2CaAc,15.3439,17.6657,2.3218
ThOsPt2,71.141,59.9071,-11.2339
CaThPdPt,43.7293,39.5637,-4.1656
TbTaAl2,17.1667,20.464,3.2973
UCoRh,41.2395,39.3921,-1.8474
Th3TlFe3,28.3016,33.5955,5.2939
RbScNb2Ga,60.8752,50.7239,-10.1513
CaGeTe2,23.8359,24.0912,0.2554
Ca2YCo,26.8013,22.7204,-4.0808
Ac2GeIrRh,38.9148,39.623,0.7082
SmTh2Ag,47.1514,48.3027,1.1514
Na2Zn2Sn3,18.0395,17.091,-0.9485
Na2ZnSn5,20.0048,19.2949,-0.7099
Ca3YCo,22.696,18.8588,-3.8372
Mn2WSe,71.6739,58.874,-12.7999
Pr2NiP4Pt3,29.9523,21.6369,-8.3154
Be2MoAs,13.4464,9.9202,-3.5262
CeZn7Fe5,10.2691,7.6871,-2.582
TbSm2(TmSc)2,21.2596,23.5699,2.3103
BeMoAs2,13.3516,11.7435,-1.6081
AcGdInPt,50.1803,45.2649,-4.9155
NaMnAlFe,29.6119,25.8778,-3.734
Ti2GaPd2,6.3536,9.3796,3.026
BeMo2As,15.5153,14.7599,-0.7554
ZrGa7Fe5,22.106,17.3681,-4.7378
NaBePt2,50.4488,36.9701,-13.4787
ZnMoIr2,34.36,32.6225,-1.7376
Ta3SiSe,35.7018,34.3033,-1.3985
Sr2RuO6,15.3172,14.2574,-1.0598
Y(MgTa)2,33.2697,30.2283,-3.0415
Mg2UCo,18.8474,18.8534,0.0061
PrO2,7.3096,4.2707,-3.0389
ZrTeBr4,31.6343,28.8908,-2.7436
Na2ZnSn3,17.4268,16.3439,-1.0829
PmPr(NiP)2,13.4601,13.0317,-0.4283
Cd(GaBr2)2,11.1882,11.7229,0.5347
Ac3Ga3Pt,43.3631,40.9536,-2.4095
VCoP2S,48.6475,37.5599,-11.0876
Ho2Tm2Zr,39.2643,39.4812,0.2169
TbScPdRh,27.9128,24.6926,-3.2202
Pr2AlNi4P3,18.0342,14.1632,-3.871
CrMo2As,13.7332,16.3368,2.6036
NbCdTeI2,49.8352,43.8996,-5.9356
Tl2Pb3Cl8,21.4872,22.4872,1.0
Sm2Ni3P4Pt,21.7856,18.8386,-2.947
CrMoAs2,13.1947,12.8192,-0.3755
Ba3Tl3Pd,20.8886,23.5304,2.6418
Er4ScSb4,34.1542,30.4286,-3.7256
CaY3Co,29.8545,23.3591,-6.4954
Hf2ZrNb2,134.0897,103.6442,-30.4455
Pr2SmZr,28.5814,25.8577,-2.7237
TaSiRh,32.9259,29.0471,-3.8788
BaBeCr2,14.7964,12.1414,-2.655
Ta2InAs4,19.8433,21.1451,1.3018