Formula,E_hull_DFT (eV/atom),E_hull_ML (eV/atom),Delta (ML - DFT)
VRe2I,51.359,46.8897,-4.4694
AlZnPt,33.1011,25.5402,-7.5609
SmY2ErSc,15.8926,17.7642,1.8715
Al2SiMo,24.1027,19.9379,-4.1648
SrOsSe2,38.4791,34.7765,-3.7025
SrOs2Se,37.7598,36.6991,-1.0606
FeSb2TeN,35.8737,29.4219,-6.4518
CsCa2IrN,23.346,20.2744,-3.0715
Al2SiMo,23.8878,19.9379,-3.9499
Sm2Y(ErSc)2,20.3748,21.8443,1.4695
SmYEr3Th,26.8381,31.1505,4.3125
CaPuSi4,25.6799,20.7501,-4.9298
NaTlVGe2,45.7735,38.8593,-6.9142
Li(CuAu)2,21.5125,23.2345,1.722
Li(CoGe)2,1.244,3.6879,2.4439
Sc2GaCl,22.2391,23.2182,0.9791
SmYErSc,20.6047,21.4919,0.8872
Sm3YErTh,25.3437,28.9264,3.5827
Al2BiAu2,27.2288,29.4672,2.2384
TiCoS4,50.3785,36.5513,-13.8272
TaPdRh,34.0688,32.5481,-1.5207
Li(TbCu)2,9.2462,12.2573,3.0112
SiGeAu,19.492,19.8515,0.3595
Li(ZrSb)2,51.131,40.8161,-10.3149
Al4SbSe,17.7164,15.4912,-2.2252
CaEuYEr,24.2532,22.9931,-1.2601
NaTeOF2,26.916,22.913,-4.003
DyHo2Si,24.4511,24.7634,0.3123
GaGeAu2,24.7536,27.8643,3.1107
EuZnPd,0.0,3.3263,3.3263
Na2TiAgC,35.6949,27.1657,-8.5292
AlSiBr,24.3746,20.8748,-3.4998
LaThSc,34.8193,36.5169,1.6976
Zn7Tc,18.2308,17.2692,-0.9616
SmYErAl,32.7769,30.2769,-2.5
Y(TiPd)2,18.4984,17.4107,-1.0877
Pr2AgGe3,3.9369,4.9015,0.9646
Li2ZrSb,35.6748,28.6619,-7.0129
ZrCu2Pb,36.56,34.8725,-1.6875
ZrCuPb,35.8508,33.6937,-2.1571
LiZrSb,47.897,38.7665,-9.1305
KBa2Br2,5.5604,4.6355,-0.9249
Rb2TcP,28.201,23.9194,-4.2816
ZnGeIr,25.3474,22.6983,-2.649
RbTc3P,65.71,52.9616,-12.7484
Sm(YEr)2,17.1795,20.8651,3.6855
Tl2IrPt,59.024,52.9363,-6.0877
Sc2OsS,36.2929,36.5648,0.2719
Hf2Be2Co5W,33.0492,25.1034,-7.9458
Tb4TeRu,9.3775,14.3897,5.0122
CaDy2YHg4,10.2802,10.5508,0.2706
Tm8Tl2Ag,34.2522,34.9348,0.6826
In2IrBr,24.054,25.3157,1.2617
CuNi7Ge4,13.5826,10.3507,-3.2319
NaLiCu4,8.6901,9.1776,0.4875
BiSb3Te,47.2504,39.9916,-7.2588
NaFeIF2,18.6488,15.347,-3.3018
Na2MnNbAl,61.0547,51.1327,-9.922
Li(GePd)2,10.4529,12.4849,2.032
Ce(ZnPt)4,40.8897,28.924,-11.9657
ZrVSi,55.0957,43.4649,-11.6308
K(AgRh)2,30.9882,24.1696,-6.8186
Ag2PbAu2,38.782,38.1079,-0.674
Li2Tm2Tl3,30.4475,32.1538,1.7063
Pa3BePt5,71.7363,56.563,-15.1734
CrIrW2,33.6044,36.4407,2.8363
YAl2HgBi,27.7325,24.0819,-3.6506
Ga2SnSb,20.6892,19.1964,-1.4928
TlSbAu4,44.2727,44.1842,-0.0885
AcYTmHg,36.4946,35.4399,-1.0547
Li(AcNi)2,28.2034,30.6562,2.4528
Sm2ScTi,15.2389,17.6693,2.4303
AlSbRu,21.2451,20.248,-0.997
Dy3Y2Si3,27.6448,24.9602,-2.6845
BeCu2Mo,23.3396,16.217,-7.1226
NbSn2Sb,57.4637,49.5162,-7.9475
TbScS,41.0545,39.3313,-1.7232
CuMo4P,26.0098,21.2614,-4.7485
YAl2Hg,20.0353,16.3388,-3.6964
NpMn6,96.0826,80.5182,-15.5644
YHg,17.4814,16.8865,-0.5949
La(ScSb)2,26.668,20.2001,-6.4679
CeMg6Mn,17.632,16.2969,-1.3351
FeSbW2,40.7908,39.8975,-0.8934
Li(BiPd)2,28.6701,30.6837,2.0136
BaNa2LiCd,15.343,13.0163,-2.3267
RbTc3I,63.906,54.0329,-9.873
GeMoAs,4.4522,10.1048,5.6526
Na2GaPdF6,11.8988,9.8954,-2.0034
AlSnSe,23.7461,21.7251,-2.021
Ge3MoAs,11.2595,12.7169,1.4574
Zn2SiOs2,17.2681,19.8563,2.5881
ZnCd2Ge,14.0263,15.1258,1.0995
Cr3SnW,19.2517,19.0931,-0.1586
TlOsPt2,68.2225,55.3563,-12.8662
Zr3Bi2Sb,67.9752,58.5221,-9.453
SiAsSe,44.5697,39.4492,-5.1205
ZnSi2Os,20.5718,19.2979,-1.2738
NbCdCu,41.3246,39.4907,-1.8339
RePd3I,24.8034,25.464,0.6606
Tb4SbOs,25.5034,27.3736,1.8702
Be2Ru2Pb,11.4864,15.2535,3.7671
Tb4SbIr,25.7681,27.2941,1.526
AgBPb,24.467,24.9928,0.5258
Na2AlIrN,20.5236,19.1922,-1.3314
TlOsPt2,68.3927,55.3563,-13.0364
ZrTi3Hg,25.3732,20.5404,-4.8327
Tc2PIr,64.9411,56.6374,-8.3037
Y2HgBr,28.3206,22.4594,-5.8612
Li3(CdBi)2,21.0251,22.0844,1.0593
Y2HgBr,27.5343,22.4594,-5.0749
Li3(CuAg)2,11.044,10.0748,-0.9692
K3PdCl,11.1008,10.9378,-0.163
YHg(AsO4)2,8.3908,8.5031,0.1123
POsS2,41.1692,39.5947,-1.5744
SmSb2Ru,25.834,25.0645,-0.7695
MoAuSe2Br,35.1014,31.5377,-3.5636
LuAgRh2,40.341,33.573,-6.7679
TeRh2C,51.2634,39.1553,-12.1081
Zr6TiBi3,69.2614,56.7491,-12.5123
Be2CuMo,19.9302,15.3784,-4.5518
Si2RhBr,22.5595,16.473,-6.0865
Na(CdOs)2,25.407,31.2094,5.8024
FeMo2Br,14.6917,12.2214,-2.4703
La(ZrBi)2,64.8144,55.1638,-9.6506
LaZrBi,61.2342,51.6942,-9.54
Be2CuMo,20.021,15.3784,-4.6426
NaOF,5.4211,4.618,-0.803
SiRh2Br,30.9389,23.4589,-7.48
AlSi2Sb,29.8742,22.9516,-6.9226
BeCu2Mo,23.4807,16.217,-7.2637
BeCuMo2,24.3771,18.5476,-5.8296
TaSnRu,16.8783,7.3376,-9.5407
Li2PmTl2,25.2415,26.8206,1.5791
Ca2LaAgTe4,31.4338,27.559,-3.8749
CrAgRh2,34.7884,26.5798,-8.2086
NdY(NiAs)2,43.6245,37.9518,-5.6727
AcRu3,0.0,1.7821,1.7821
SrCoGe3,4.4782,7.048,2.5698
Zr2TcBi,85.7381,73.9928,-11.7453
TiGeIr3,30.5669,31.7499,1.183
LaZr2Bi,69.7672,58.6822,-11.085
TiBiIrOs2,41.1308,41.8683,0.7375
TlIr2Pb,48.2036,50.8822,2.6787
KTi2GeIr,16.6361,17.0644,0.4284
Ti2IrOs2,0.0,8.1139,8.1139
TiIrAu,32.9987,30.7882,-2.2105
Y2TiGa3Pt4,47.7918,34.0507,-13.7411
Ti8Sn2Ir,17.4963,15.4217,-2.0746
Sc2Cu4S5,39.7592,30.3239,-9.4353
TiCd2Ir,22.2314,24.4025,2.1711
SbPdN2,20.585,17.3906,-3.1945
Ti2BiIr2,22.1071,27.6145,5.5074
LiTiIrPb,25.0214,28.1209,3.0994
TiGe2Ir,17.1212,20.0687,2.9475
SiSn2Sb,23.5687,19.3083,-4.2603
Ti2CuIr,14.5839,18.4784,3.8945
TiCd3Ir,23.2075,23.5383,0.3307
TaIrW2,39.1859,45.5808,6.395
LiPaIr2,38.1574,42.8904,4.7331
TiMnRu2,33.8529,32.353,-1.4999
Li2TiIrSe,20.531,19.3282,-1.2028
DyY3Hg2,25.0109,20.5244,-4.4865
KTcNi2,25.8763,25.663,-0.2132
Mn2Cu3Au8,46.0347,43.7751,-2.2596
LaWCl2,24.768,21.0683,-3.6997
Sr3CaMo,15.3711,14.4604,-0.9107
ReRu4Pt,32.7042,31.4427,-1.2616
MnCu4Au,24.2446,23.5548,-0.6898
Ag(RhW)2,59.4027,47.8238,-11.579
Na(OsSe)2,35.9461,33.1451,-2.8011
ReRu4Rh,33.0399,32.3078,-0.7321
UTaRu4,28.2552,32.2921,4.0369
NaPm4Se5,34.7018,30.2936,-4.4082
Li(TbRh)2,29.7015,25.3554,-4.3461
PuURu4,34.1562,38.0482,3.8921
K2RhW,29.1078,25.6283,-3.4795
Li(ScS)2,32.8445,30.1316,-2.7128
YTi3Tc,54.0282,47.5529,-6.4753
Ti2IrAuI,31.3016,28.3856,-2.9159
Cs(BaNa)2,13.3813,12.4509,-0.9304
HfBRu3,28.9376,25.5786,-3.359
LiLa(YHg2)2,19.7726,15.1772,-4.5954
CrCdTc2,47.3215,42.4502,-4.8713
Cs2Ag(TeO3)2,15.744,14.8158,-0.9282
NaOsSe3,42.3911,35.6129,-6.7783
AlMo2Pb,32.025,28.8695,-3.1555
Rb2SnMoBr6,16.3225,13.7904,-2.5321
AcThZn3,27.1768,30.4364,3.2596
Cs4LaU3O12,18.5805,19.9512,1.3707
AlMoPb2,32.0616,32.7448,0.6832
Mn2Si2Ge,40.8108,32.5389,-8.2719
Ga(SiTc)2,44.4078,37.0037,-7.4041
Ti2TeIr2,19.399,24.2005,4.8014
Sr2Al2Pb,17.7046,18.7954,1.0908
Hf3BRu,90.7246,65.9058,-24.8189
U2BiSb,59.1662,59.7723,0.6061
Ca3Sb2H,7.1881,5.9113,-1.2768
YZr2Bi,59.8388,53.9787,-5.8601
Y2TaHg,43.4721,34.9176,-8.5545
CsErCu4,13.8479,15.3113,1.4634
ErZrTlCu,46.2331,43.1893,-3.0438
ErZrCu,44.7177,39.8656,-4.8521
Ge2RhAu2,27.874,26.903,-0.9711
Y2HgSb,35.9064,28.772,-7.1344
Ac4RuAu,55.6832,56.1929,0.5097
Y2TaHg,43.354,34.9176,-8.4364
GdErScCu,33.4421,31.1316,-2.3105
MnNiI3,55.8529,49.7114,-6.1416
Zr3MoBr,65.0489,52.3892,-12.6596
LiMo2Ir,24.5355,22.2073,-2.3282
Er3CuBi,24.9319,28.0722,3.1403
NaCa2F,10.1144,9.3488,-0.7656
NaZrO2,6.7829,4.8197,-1.9632
Y2ZrHg,49.8362,39.7539,-10.0823
Y2TaHg,43.4635,34.9176,-8.5459
NaZrF4,17.525,14.7747,-2.7503
ZrFeBr,37.1702,32.1794,-4.9908
Y2TcHg,74.3225,63.1958,-11.1267
ZrAgI6,32.9296,30.6064,-2.3232
RbSm(MoO4)2,14.8566,12.9968,-1.8598
Tl8Sn3,42.7484,43.2221,0.4737
LiFe3Ru,32.1747,23.6206,-8.5541
Ca2NdAgTe4,28.099,26.7402,-1.3589
RbCrSeN2,25.9375,20.6975,-5.24
NaCaF2,16.7571,14.936,-1.8211
Tc2PbBr,70.8875,60.9043,-9.9832
UTlAgTe3,40.9329,41.8382,0.9053
BiRu3Br,28.1754,27.3801,-0.7953
ZrSc2Bi,40.8383,38.6034,-2.2349
V3C2,91.3189,69.6761,-21.6428
Sr2YHg,19.3553,17.0163,-2.3391
YTl2Hg,37.9199,35.7435,-2.1764
TaRe2,26.3634,40.0321,13.6687
CaDyAlIn,13.5654,15.9267,2.3613
AcTl(PO3)2,17.7177,17.233,-0.4847
Y2NiCl,81.2912,74.7235,-6.5678
ErCuSn,34.3199,33.7074,-0.6126
KNbHg2,36.8497,30.5035,-6.3461
Ag2Rh,33.9992,27.1149,-6.8843
ZrBiSb3,58.6589,47.8746,-10.7842
PuTl(PO3)2,10.7338,9.9168,-0.817
YHg2Os,23.1686,21.6816,-1.487
ScW2F,27.4828,27.1729,-0.3099
SrCd2Pd9,18.2295,19.1144,0.8849
YHgOs,30.9739,29.2207,-1.7531
YTl(PO3)2,12.766,10.9637,-1.8023
Hf3ScSn,98.7175,70.9527,-27.7647
CsY(PO3)2,14.6145,11.0817,-3.5329
YHg2Pt,34.5946,24.6733,-9.9213
YHgSb2,34.6401,26.999,-7.6412
Ag(SbIr)2,36.1088,33.496,-2.6127
LiTmLu2,24.7487,27.5674,2.8187
ZrBiI,43.1529,38.1679,-4.985
DyY2(InHg)2,23.7504,21.6428,-2.1076
YSc2Hg,15.0903,14.1871,-0.9031
Zr3BiRu,74.7126,62.4347,-12.2779
Y2ScCoHg,30.3519,24.38,-5.9719
Zr2AgGe2,42.968,36.2127,-6.7554
YScHg2,13.4857,10.2152,-3.2705
Dy3(YHg2)2,16.5051,15.6112,-0.8939
BeTc2Pb,60.6499,55.199,-5.4509
CsTmSn,21.6558,25.1234,3.4676
BeTc2Pb,60.5481,55.199,-5.3491
Dy(Y2Hg)2,32.8761,26.7768,-6.0994
Dy2OsRu,27.9943,31.4423,3.4481
V2CdMoBr,62.9574,50.7695,-12.1879
PdAu5,38.6902,41.8505,3.1603
La4CoIr2,42.5593,33.2258,-9.3335
MgTeF2,32.0952,28.216,-3.8792
CrCd2Ir,24.1983,24.211,0.0128
Zr2W2I,51.6604,47.7986,-3.8618
Cs3Ni3P2,19.0926,17.8866,-1.206
Tl3GaSb,41.6715,39.8189,-1.8526
Ag2PdAu6,40.421,40.5385,0.1175
CeZn3Pt,26.9604,22.4672,-4.4933
ZrW3I,49.6739,48.0164,-1.6574
GaSbPb,35.3181,33.1665,-2.1516
SrV2Rh,74.6126,57.5623,-17.0503
Tl2GaSb,38.7976,36.9587,-1.8389
EuAs2Ru,20.4139,18.4954,-1.9185
EuAlPt2,51.7055,38.6802,-13.0252
DyYHg4,12.6296,11.5983,-1.0312
CuPS2O,33.2861,24.6992,-8.5869
Rb2NaZnBr6,9.3844,9.2238,-0.1606
Sc5SeS4,43.6187,40.1767,-3.442
ScSbSI2,38.3021,34.0882,-4.2139
EuTlAs,29.1892,31.056,1.8667
CdP7,6.4127,6.6773,0.2646
Dy2YHg,26.1609,25.2528,-0.9081
Pm2B3Ir2,19.3718,22.2903,2.9185
Y2MnIn2,29.7695,26.1268,-3.6427
TaIrW2,39.217,45.5808,6.3638
TbEuAs,13.3764,17.179,3.8026
NaCa2Si,17.2473,13.6078,-3.6394
NaSnPtAu,45.301,37.8602,-7.4408
Bi2AsPPt,50.3577,42.079,-8.2787
TiCd2Sb,19.4336,19.4525,0.0189
Eu2AsO,15.3068,18.6958,3.389
EuAsSe2,48.0659,43.7466,-4.3193
TbEuAs2,17.4309,20.3243,2.8934
Eu2As2Pd,9.7865,13.6896,3.9031
PmEuAs4,15.0552,16.7165,1.6613
PrEuAs2,9.6086,12.5978,2.9892
Eu2AgAs,23.759,24.1735,0.4144
Eu(AsOs)2,26.0298,28.3486,2.3188
RbSb2Pd5,23.636,20.8504,-2.7856
Y(ZnAg2)6,23.4066,19.0967,-4.3098
Eu2SnAs,21.0007,23.3048,2.3042
Eu2AsAu,27.5057,29.3995,1.8937
Eu2BiAs,29.3885,31.7027,2.3142
EuBi2As,36.974,38.6312,1.6572
LiLa2YCl,53.1101,44.559,-8.5511
EuAsP,24.8665,22.7119,-2.1546
Eu2MgAs,18.8869,18.6649,-0.222
Na(CuBr3)2,11.7097,10.0036,-1.7061
Dy2Be4Si3Ir,26.8101,24.1109,-2.6992
Eu2AsBr,17.978,20.0664,2.0884
EuVAs2,43.5725,38.2075,-5.365
EuNpAs2,28.6572,31.7193,3.0621
EuInAsAu,25.8415,27.7602,1.9186
Li2In3Ag2,18.7954,16.324,-2.4714
PrEuAsAu,29.7118,27.6909,-2.021
TlPb3F,43.8264,44.1409,0.3145
GdZnGe3,12.7106,14.263,1.5523
Li2Ag2Sb3,28.1428,22.5841,-5.5587
NaCdBi2,35.5324,35.8865,0.3541
YbSnRu,7.6115,13.5963,5.9848
Dy2YHgO,27.7101,26.0568,-1.6533
IrOsPd3,29.7203,31.3308,1.6105
GdTaRu2,24.339,28.1196,3.7807
Ba2Li2Al3,13.6516,9.2582,-4.3935
AgSbSeN2,27.5133,21.7422,-5.771
Li2Ac2Au3,34.3922,36.6912,2.2991
TbSm(YHg2)2,18.5195,17.2371,-1.2824
TaOsRu,32.008,38.2529,6.2449
TaPRu2I,32.0622,24.6499,-7.4123
Y10(HgPb)3,31.8661,27.5867,-4.2794
Pr2Sm3Pt2,34.2217,26.9696,-7.2521
PaFe4Ru,43.9799,32.7027,-11.2772
BRh,12.4131,15.2957,2.8826
ScPdCl2,19.6222,19.656,0.0338
Sr2SeBr2,20.78,19.9652,-0.8148
Mo2RuI,24.6915,24.0243,-0.6672
Ce3Sn3PdPt2,37.4668,30.8584,-6.6084
La3PuPd4,36.5486,31.3758,-5.1728
PrNpPd6,20.882,23.0057,2.1237
Y3Sn2Hg3,25.2112,19.4887,-5.7225
TbHfPSe,54.0655,44.398,-9.6675
Mg2Cu2Rh,21.1765,14.8405,-6.336
Ce2PrAg6,25.7036,22.3345,-3.3691
MgNiAgN2,30.1447,23.2288,-6.9159
K2HgRu,10.7542,10.5512,-0.2031
K(Rb2Na)3,8.7261,6.7797,-1.9463
MoPS2I,39.4661,30.2678,-9.1983
TcNiN,44.5851,36.7346,-7.8505
HfPaSe2,76.1883,62.8858,-13.3025
Ni3PdN,9.2456,11.8084,2.5628
InSbAs,24.9681,22.7398,-2.2283
HfZnSeBr2,44.7404,34.2641,-10.4763
YMnSe,53.3123,44.6625,-8.6498
ScAg4Sn,30.357,24.2853,-6.0717
Pr3NdAg4,16.7072,15.0433,-1.664
LaSiIr3,41.5012,36.8342,-4.667
Hf6AlSn,111.023,80.0085,-31.0145
BaPI2N,22.5595,19.2657,-3.2938
Ac2PdAu3,42.586,45.6532,3.0672
HfPaSe,85.8709,71.0111,-14.8599
MnCr2NiN,58.8185,49.7954,-9.0231
BaCrTe2,27.5875,25.4788,-2.1088
InPd6Au5,30.0371,31.5482,1.5111
SrCaBeAl2,16.2482,12.2965,-3.9517
Pm6Pr4Sm,14.4302,16.8817,2.4514
YZrP2,42.7828,33.7658,-9.0169
K2HgRu,10.7812,10.5512,-0.23
Li2Hg2Pb3,25.0609,25.5154,0.4545
DyY4Hg,20.83,18.5615,-2.2685
CaSe2I,48.5398,39.7534,-8.7864
Pr2PdO3,15.8342,11.799,-4.0351
AgPtAu14,48.9485,47.4721,-1.4764
PuScAu4,43.7946,45.7335,1.9389
BaBe2Te,12.22,11.3214,-0.8986
TcHg2Se,35.7239,30.0306,-5.6933
ScUAu4,43.3543,45.4264,2.0721
Ce2Y(CdHg)2,19.5791,19.2608,-0.3183
Y3Hg3Pd4,22.8131,18.7533,-4.0598
ScAgBr4,14.478,13.0686,-1.4095
Co2NiAgN,68.4571,55.4004,-13.0567
ScTlBr4,17.5477,17.6229,0.0752
Ni2PtN,34.2517,25.4396,-8.8121
SrLuAg,25.9985,25.505,-0.4935
Na2TlAsPt,39.7205,32.0177,-7.7027
GaSnRu2,16.2377,18.6655,2.4277
NiBrN2,9.6591,8.0645,-1.5946
Li2Ni3Ir2,15.2053,17.0164,1.8111
Re2NiN,104.8337,90.4793,-14.3544
PuZrHg2,42.3924,38.4386,-3.9538
TaMnRh2,58.2157,49.2736,-8.9421
PaAl2ZnPt4,53.9647,40.9271,-13.0376
CaSnMoBr2,25.8003,20.5838,-5.2165
K2Ag2Pd,18.4443,16.2302,-2.2141
Y4Cd2Hg,23.7039,21.6627,-2.0412
Ta3Mn2Rh,59.4061,53.7286,-5.6775
Nd3In3Ir2Pd,25.7752,27.7508,1.9755
Ba2SrBr,7.8551,8.3566,0.5015
Li2Pu2Pt3,58.4531,47.2023,-11.2508
RbAgSb2,30.9968,24.4929,-6.5039
Rb2CdCF6,12.301,9.2502,-3.0508
Ce4ScCd,20.609,22.9329,2.3239
PmNd2Ag3,23.6877,23.8018,0.1141
FeMoAs2Br,26.0633,22.8381,-3.2252
Pd9Pt,24.9411,23.9758,-0.9652
Sc2AsRhPb,34.2854,27.877,-6.4084
LaW2Cl,33.2166,32.355,-0.8616
RbGe,0.0,1.4079,1.4079
Ce4Ni2N,21.9242,20.5124,-1.4118
RuPb2Se,42.467,41.8815,-0.5854
Be3NiSb,14.4387,12.1016,-2.3371
Ni3AuN,14.6176,14.175,-0.4426
NaLaCeIn,30.2147,26.0567,-4.1579
PrYRh,19.9365,16.696,-3.2405
CaTlAg,29.1744,28.1705,-1.0039
AcPm2Lu,37.0925,40.5405,3.448
BaThTe3Pd,28.5746,29.7726,1.198
Ce4ThSc,28.5231,32.0253,3.5023
LiAc2(BrN)2,26.1208,27.3339,1.2131
ZnCoBr2,16.4416,13.2473,-3.1943
Nd2Ga2Hg3,8.8882,10.1207,1.2325
GaPbF4,9.4946,10.6307,1.136
CeAg(PO3)2,5.7314,3.4119,-2.3195
CePd9,18.1065,20.1226,2.0161
AcZrTe3,51.0752,48.4126,-2.6626
Mo2IrRu2,17.5044,18.0138,0.5094
SrCrPt,34.1578,22.8022,-11.3556
HfZrTc2,106.4933,85.744,-20.7492
CuP2SBr,22.3949,20.5585,-1.8365
Tl3PtBr,48.0743,43.0205,-5.0538
CeScHg4,4.551,5.8985,1.3475
Ba2Li3Cu2,5.8318,4.9463,-0.8855
PrNdZr,39.5203,35.1363,-4.384
RbNi2IrN,19.1098,18.6496,-0.4602
LaMn2V,95.2201,74.4871,-20.733
Pd5Pt6W,55.2004,41.696,-13.5043
Y2HgS4,39.6531,28.5133,-11.1398
RbIr3Pt,46.0376,41.089,-4.9486
Li3(CdPb)2,20.5368,21.3202,0.7834
Ni2PtBrN,31.7214,23.151,-8.5703
HfVIN2,61.193,46.2112,-14.9818
ThPd3,15.5248,26.5017,10.9769
Dy3YHg4,15.9824,16.1669,0.1845
Tl(NiTe)2,29.3243,29.2937,-0.0306
BaCaOs2,23.3167,25.3997,2.083
BaCa2Os,13.3996,15.4037,2.0041
SrBe2Tl,21.0787,18.5272,-2.5515
CaNiIrN2,24.9745,19.1689,-5.8056
CaGdPb2,34.3857,36.1894,1.8036
SnTeI2N,29.7776,26.9422,-2.8355
CsCuSnTe2,41.4881,38.002,-3.4862
NbBiMoBr2,47.9174,42.8228,-5.0946
NiPdRh2N,32.2732,24.5395,-7.7337
Ac2CdIrPd,36.0408,39.4659,3.4251
Li3(LaNi)2,16.5825,12.6827,-3.8998
CoTcNi2N,66.1071,57.8476,-8.2594
TeMo2BrF,31.1382,27.8728,-3.2654
Y5CdHg6,22.1614,17.3777,-4.7837
LaOs2Ru,38.6568,37.8553,-0.8015
HfCoRu2,45.3301,37.7517,-7.5784
BePS2Br,26.951,23.9274,-3.0236
TiMoIr2Br,27.5416,27.0704,-0.4712
Y2Cd2Hg,27.6304,23.5702,-4.0602
NiAgRh2N,34.0597,24.515,-9.5447
Pu3In3Ir2Pd,41.7726,44.0989,2.3264
Tm(Pd3Au)2,25.3203,27.7105,2.3902
YNi2P,43.1199,37.9701,-5.1498
RbHg3Pt,16.98,10.874,-6.1059
BaAl,12.2166,8.1942,-4.0224
CdTcP2,29.8747,27.2677,-2.607
Cd2TcP,34.2502,32.0342,-2.216
Th5Ag,60.3089,62.0913,1.7824
Ni2AgAuN,25.1647,22.3031,-2.8616
YCdHg2Rh,24.1556,19.0085,-5.1472
NiPdWN2,28.5794,24.1811,-4.3983
BaP2PbO6,5.1445,4.5547,-0.5897
Li2Pa2Ir3,37.517,40.8951,3.3781
AcP2BrO6,6.4927,6.278,-0.2147
Er3PuPd4,28.0939,30.5413,2.4475
CoIrSe3,39.755,34.2014,-5.5536
SrZr2Br,57.716,46.2629,-11.4532
TmCuHg,12.0655,14.2366,2.1711
TePI3,24.9521,23.2474,-1.7047
CrNi2PdN,23.8348,21.5521,-2.2827
Ce3Tl3PdAu2,37.2178,38.5677,1.3499
Li3(HgPb)2,17.5275,17.8001,0.2726
Sr2ScCdRh,22.2767,17.9999,-4.2767
Y2Cd2Hg,28.1076,23.5702,-4.5374
Sr2Mg3Pd4,7.3436,9.4958,2.1522
CaAl2Os,13.358,16.1704,2.8123
CsAc2CuO5,9.6721,12.4268,2.7547
DyEr4Sc,25.18,27.4513,2.2713
NaCuBrF2,13.3334,10.8896,-2.4439
NaInMo2Se,26.7258,24.0673,-2.6585
Y2CdHg,29.8214,24.4047,-5.4167
K3Rb12Ag5,7.0291,5.1725,-1.8566
NiPd3N,20.0078,18.9196,-1.0882
TeRuRh2,50.5172,40.8335,-9.6836
ZrAlTc,42.1516,55.2581,13.1065
Tm6Ag5Pd,29.4258,28.4071,-1.0186
Rb2SrMo,7.0352,7.4079,0.3726
Ni3PdN,9.2897,11.8084,2.5186
Li2Cd2Au3,25.5696,26.7402,1.1705
K(SnRu)2,11.8259,14.7686,2.9427
ScUGa4,17.5509,19.9856,2.4347
Eu2NiN,23.9929,22.3742,-1.6187
Y3(Cd2Hg)2,25.0289,21.4332,-3.5957
ScGaI4,16.6568,18.525,1.8682
Y3Cd2Hg,25.1889,22.3904,-2.7985
ThScHg4,11.4396,13.065,1.6254
HfZr2Os,86.3463,72.1919,-14.1544
RbOs,15.5942,17.314,1.7197
YCdHg,8.0307,10.3846,2.3539
RbMn2Fe,48.7004,38.767,-9.9334
NaInSe,30.246,26.019,-4.2269
Li(DySi)2,20.6296,19.2765,-1.3531
Cr2NiGeN,24.1172,21.2768,-2.8404
CsNaHg3Pb,15.3668,15.2845,-0.0824
YCdHg,22.9849,10.3846,-12.6003
Cs2FeNi(CN)6,50.4503,40.8194,-9.631
Li(PmSi)2,19.6277,18.8989,-0.7288
Li(SiPd)2,17.1184,15.4012,-1.7172
Y6Bi3Pb,23.4857,26.5015,3.0158
AlBiSe3,40.3279,34.5598,-5.7681
ErTlAg,29.8361,32.2861,2.45
Li(SmAu)2,24.1375,26.873,2.7355
BeSi2Tc,36.1278,31.4946,-4.6332
Be2SiTc,33.1348,30.1974,-2.9374
La3ZrTi,54.2746,37.4108,-16.8638
PaCo4Ru,17.8958,21.5984,3.7026
CaLaPm,23.4015,22.0203,-1.3811
Y3Cd2Hg3,23.4128,19.4338,-3.979
K3(AlTe2)2,19.3285,18.4386,-0.8899
Ce2Mg2Pb3,30.2031,32.0647,1.8617
YCdHg3,11.6094,10.5313,-1.078
Pr2Nd(InPd)3,13.437,15.1572,1.7202
Na2In3PtAu12,42.4871,40.9257,-1.5614
ErPd7,18.7724,20.9632,2.1908
RbCaSb2,22.1085,16.8114,-5.2972
Sr2ZrTaO6,27.2455,21.6896,-5.5559
Ga2Pd2Pb,20.4832,21.3364,0.8532
YRuN,39.463,35.9324,-3.5306
YCd2Hg,21.9948,19.9132,-2.0816
CeTmSc4,12.6973,15.4147,2.7174
YPu(MnP)4,54.4743,45.2076,-9.2667
Sn(PdPt2)6,63.7442,44.4878,-19.2564
InSb2Se,39.3881,32.2626,-7.1255
Mg2Ge2Ru3,10.6101,12.3214,1.7113
Th2Mg2Ge3,17.9578,21.8284,3.8706
NaZnSi2Tc,32.5417,26.353,-6.1886
Co(CuPd2)6,16.9926,17.2295,0.2369
FeP2SeS,37.597,32.2245,-5.3725
La2PuHfN4,38.8568,31.209,-7.6478
K(GeBi)2,27.9392,28.7604,0.8212
Y2CdHg,30.1238,24.4047,-5.7191
RbLi(SO3)2,15.7889,13.8421,-1.9468
Th3Au2,51.8823,55.4928,3.6106
MnCd2Pb,44.6765,41.8065,-2.87
Sr2Ag5HgPd2,18.5162,16.6801,-1.8361
TmF2,13.1639,15.2783,2.1145
YCdHgPt,39.2256,30.4178,-8.8078
Sc2VSi2Rh5,46.4172,35.021,-11.3962
Sc2PdRhC,30.2191,22.5532,-7.6658
Y2Cd2Hg3,19.5666,16.8173,-2.7492
Y2CdHgRu,28.0239,23.8424,-4.1815
CaHf3Se,113.6815,82.4294,-31.2522
LuNiRh,16.186,18.0654,1.8794
Nd2Y(CdHg)2,19.4333,19.3679,-0.0655
Li2PrHfSe4,40.1713,31.1846,-8.9867
BaHf2GeSe,70.9107,51.922,-18.9887
Ba(HfSe2)4,72.6344,53.6468,-18.9876
SrLaFe,38.0847,27.8438,-10.2409
Cs2SrSn,19.0159,20.3035,1.2876
Hf2Rh2Se,77.7305,55.5615,-22.169
AlSi2Os,28.668,25.769,-2.8991
Cr2NiCl,23.9508,21.699,-2.2517
KPd3W,21.511,22.555,1.044
Gd2HfSe,62.3539,51.1426,-11.2113
TbScIr,35.6475,28.7972,-6.8503
Na(Ga2Ir)6,19.978,20.5875,0.6095
ReAgPt2,62.4951,48.3468,-14.1483
CsMgUO4,11.7717,12.5371,0.7654
TlI3Br,26.4449,26.4356,-0.0093
Sc3SiC,25.2911,20.6254,-4.6656
Pr(Tm2Th)2,36.5201,38.4662,1.946
Re2Ag2Pt,47.3025,40.5993,-6.7032
LiPa(SbO3)2,25.4444,24.9065,-0.5379
LiTa(SbO3)2,29.7896,28.9904,-0.7992
Re2AgPt,50.5187,45.4395,-5.0792
Pm2DyYHg4,12.1356,12.5879,0.4522
Pr3Sm5Sc,15.0573,15.0398,-0.0175
Tl2IBr,33.3504,34.1899,0.8395
Ac3ZnCd,40.7809,43.8169,3.036
Ac4PrPd15,25.2646,27.2717,2.0071
AlSi2Os,28.7571,25.769,-2.9881
Dy2Y2Hg3,21.8842,19.4797,-2.4045
SrAcGd2,34.3715,36.9781,2.6065
VOs2I,53.1457,49.309,-3.8367
RbRu,0.0,32.5859,32.5859
Al2SiOs,25.8308,25.0406,-0.7902
RbTlTc2,61.291,54.1884,-7.1027
HfVTeSe2,82.3576,63.1445,-19.2131
Pm3ZnCd,16.4892,19.8414,3.3522
Tb(Pr2Tl)2,15.597,17.4655,1.8685
AlSiOs,25.8908,25.9521,0.0613
ZrCrOsSe2,50.0348,41.2713,-8.7635
Ga(TcNi)2,34.4605,32.6029,-1.8577
RePt2W,64.3572,52.7507,-11.6065
Rb2TeAsBr6,19.8697,18.3612,-1.5084
Sc2NbCd,43.0657,38.8702,-4.1956
GaTcNi2,28.2396,27.6276,-0.612
RePtW2,51.6928,48.726,-2.9669
NbPdCl2,41.5856,37.3941,-4.1915
Ga4I5,16.2273,17.3218,1.0945
BaLi2Ac,20.4172,20.1877,-0.2295
Sc2NbCd,42.8178,38.8702,-3.9476
K2AuI,22.7206,22.8426,0.122
Tb2TmHg4,11.8156,13.13,1.3143
Ga2TcNi2,18.5542,19.3605,0.8063
Nd2Sm3Mg2,18.5299,20.9474,2.4175
Tl2IBr4,24.0163,24.7066,0.6903
Re2PtW,52.2952,49.4545,-2.8408