Formula,E_hull_DFT (eV/atom),E_hull_ML (eV/atom),Delta (ML - DFT)
NaLiNiRh2,26.7246,20.2067,-6.5178
KSr(PO3)2,4.6497,2.8247,-1.8249
La2(NdEr)3,33.1963,30.1807,-3.0156
KPm(PO3)2,4.9062,3.3843,-1.5219
Hf2Ga2Pt,70.9302,51.0545,-19.8757
Li3Sm,6.7594,8.0917,1.3323
KAlRh2,28.2189,22.8297,-5.3892
Pu4CoSn2,47.9105,49.4441,1.5336
Y2ScIn2Rh5,25.7227,20.1703,-5.5524
KTb(PO3)2,4.9853,3.614,-1.3713
Na2Zr2NiS6,52.7041,39.7553,-12.9488
FeCoCu,34.2667,28.5094,-5.7574
RbMnCo2,25.7732,20.1403,-5.6328
Cu2PdAu,19.5218,21.5263,2.0045
NaYHgPd,23.8398,19.2601,-4.5797
Ta2TeAu,40.9669,43.5654,2.5985
NaLiHgSe,19.8774,16.0489,-3.8285
Th3TcPd,53.4838,55.4145,1.9308
TaAlHg2,10.3658,12.3942,2.0284
Ir2OsPt,54.9125,51.9325,-2.98
CdBr,15.0745,16.3442,1.2697
Ca3(ZnHg)2,5.592,5.0691,-0.5229
Fe4CoCu,22.9533,18.6046,-4.3487
Tl3SbIr,48.4887,47.3347,-1.154
ScVNi2,36.8019,31.8696,-4.9323
AlReSi2,22.9655,25.6627,2.6973
CsMg2UO6,6.1513,5.8129,-0.3384
Na2Cd(InSn)2,21.3169,20.6575,-0.6594
CsLa(InCl3)2,12.4502,11.8696,-0.5806
Sr2YPb,25.3583,24.7806,-0.5777
Sr2YTlNi2O7,20.6961,18.256,-2.4401
GdSn4Pb,27.3332,28.5667,1.2335
Ca3(AcSm)2,27.8559,29.6192,1.7634
TaIN2,18.3738,19.2648,0.891
TaAlI2N,21.1084,19.6106,-1.4979
Sr2Ca3Zn2,10.9109,9.0494,-1.8615
Zr2FeBr,52.1108,44.1367,-7.9742
CaCoW2,26.5791,27.8029,1.2237
MnIr,10.3319,13.2628,2.9309
KZrV2S,86.7976,67.5369,-19.2608
SrNbAu2,62.4882,57.3406,-5.1476
Ca2MnIr,45.8562,34.7099,-11.1462
SrTcSe2,45.3793,38.2283,-7.151
PmY2In9,20.4361,20.1716,-0.2645
BaSnTe3,24.8705,25.1048,0.2343
Tb3Pm2Sc3,20.3418,20.334,-0.0079
Ta2AlTe,29.9301,32.5518,2.6217
Sn2S2Br,29.4995,24.0419,-5.4576
Pr2Ho5Tl3,24.3836,26.9622,2.5786
Cr2CuW,9.7187,12.8936,3.1749
Tb3Pr2Sc3,10.9874,12.3192,1.3318
OsRuO4,7.5537,7.9902,0.4365
Zr2Sb2S,61.283,48.6489,-12.6341
Sm2(ThSc)3,33.0678,35.9699,2.9021
SiSnP2S,24.585,23.3628,-1.2222
Bi(PS3)3,40.4688,33.3332,-7.1356
KAlSb4,20.8418,16.8048,-4.0371
Sm2(TmSc)3,19.6801,21.938,2.258
Tb3Sm2Sc3,18.1596,20.4086,2.249
Zr3NiS,71.8063,58.4127,-13.3936
Sm2V2C3,69.5725,53.9679,-15.6046
Pm2YEr,23.226,25.9281,2.7021
TlCdSb4,41.726,34.756,-6.9701
InCuP2,8.8517,8.3619,-0.4898
CsZr2S,64.4156,52.2966,-12.119
Na12Pb3Cl5,15.1259,12.9612,-2.1647
YbRuPb,19.6456,25.5305,5.8849
Rb(SrZr)2,42.1275,37.0301,-5.0974
Yb2Fe3Ru,19.9371,17.9688,-1.9683
La2MgPbO6,19.1572,20.0731,0.9159
YbGaRu,5.7026,10.6882,4.9855
Yb3CdRu2,26.0719,28.2257,2.1538
Pr2Pa2Te7,37.0869,36.8782,-0.2086
Yb2AgRu,29.7019,29.2574,-0.4445
Li3(HgAu3)2,27.3486,27.5207,0.1721
Y2FeRh,21.0484,18.6562,-2.3922
YbPaRu2,33.2885,37.2253,3.9368
La2TmGa2,29.6941,24.6127,-5.0813
InRe2Hg,25.7115,28.5452,2.8338
Ca4Y3TmTe8,29.1158,26.0647,-3.0511
Ag2GeBr4,16.5111,14.725,-1.7861
Zr2Re2C3,77.01,62.3671,-14.6429
YLuMnRh,48.6621,41.3065,-7.3556
Zn2GaIr,20.6709,18.6547,-2.0163
Si2HgBr,10.9682,7.8475,-3.1207
EuPaIrPd,38.7458,42.1418,3.396
ZrFeSbS2,59.6274,45.6328,-13.9946
Tl2Ga2Sn,27.899,29.1416,1.2426
Sr3BiC,30.909,27.7575,-3.1516
Ca2MgIO6,21.2223,19.78,-1.4424
TcRh2Pb,61.212,50.8965,-10.3156
ScHgBr3,8.9313,7.1609,-1.7704
Y2MnVNi,97.0787,78.6883,-18.3904
As2Cl,7.1297,7.7633,0.6336
K2RbBr,8.6081,8.495,-0.1131
YThTiIn,43.488,39.6536,-3.8344
Pm3(Sm2Sc)2,21.9345,23.5283,1.5938
NaBeZnP,11.4044,8.2248,-3.1796
Ca2Ce2Tl3,30.0916,31.869,1.7774
LaY2Tm9,29.6361,29.5861,-0.05
Li4HfP2,27.2512,18.8605,-8.3907
La2Y(TlZn)2,34.3807,29.9412,-4.4394
LaY(ScTl2)2,34.5563,34.219,-0.3374
ZnGaIr2,29.4723,28.7895,-0.6828
Mn2CdC2,62.4145,46.929,-15.4855
LaYTlAu,40.3536,38.262,-2.0917
HfP,63.5449,48.0839,-15.461
YNb2PdO,78.9188,65.5489,-13.3699
BaNaSr,12.8945,11.9698,-0.9247
AsPdRu3,18.3093,18.6784,0.3691
Zn2Ga2Ir,15.1659,14.283,-0.8829
Na(Ga4Ir)2,16.1235,17.1776,1.054
Sr2SbPb,30.4673,27.7995,-2.6677
AlIn2Ir,21.614,24.226,2.6121
CrSbP,50.4295,40.9143,-9.5153
AlHgB,0.0,1.5278,1.5278
Pu2PaGa2,36.3256,40.151,3.8253
BaSrCaSm,12.7756,12.8469,0.0713
AsCl,0.0,0.175,0.175
YBiPd3,24.9052,25.3764,0.4712
Ga2BiPb2,35.398,36.4599,1.0619
RbSbPb2,34.5837,33.7219,-0.8618
EuIn2Ir,20.772,24.045,3.273
AgBi,39.9652,38.1336,-1.8316
Ce2Ga2Pd,15.1784,16.5156,1.3372
GdNi,20.1164,21.9602,1.8439
Zr2Zn2I,42.664,37.5571,-5.1069
Ga2PdPt2,46.3334,34.3284,-12.005
NaSr2Tc,34.1476,30.0374,-4.1102
Pa2Ga2Pd,31.1433,33.5747,2.4314
YNiPd2Pb,51.1914,47.1151,-4.0763
Cd(CuSb)2,24.7775,21.218,-3.5595
Ta3Pt5,69.0539,54.0706,-14.9832
Nb2CuBi,86.561,75.2419,-11.3191
NaMnAu2,55.9457,53.4591,-2.4865
Cd2CuSb,22.607,20.8613,-1.7457
Pm2ErGa2,14.0928,17.4377,3.3449
Ac2PmGa2,33.7377,36.0251,2.2874
MgCu2AsO6,0.0,0.0,0.0
RbAl2Se,11.0856,10.4244,-0.6612
PaTl3,55.1798,56.762,1.5822
YTaPd2W,40.6372,36.7587,-3.8784
CaSbRuPb2,35.4703,33.4885,-1.9817
Cs2LiF2,7.6383,9.0102,1.3719
Zr2(ScIn)3,35.4395,30.5172,-4.9223
InAg2Ru,25.3488,22.4863,-2.8625
GaHgPbAu,27.0699,28.3471,1.2772
CaCuMo2,22.888,13.8854,-9.0025
CaCuMo2,22.7582,13.8854,-8.8728
SrCoI,4.2933,7.6865,3.3931
In2AgRu,22.3048,22.1335,-0.1713
In2SnPb,25.4542,27.7996,2.3454
Tb3Sc3In2,17.8199,18.3381,0.5182
NaCaAlSn,13.2796,13.4312,0.1516
AlSnPt2,50.1965,38.106,-12.0906
Ca2La2Cd3,24.2246,20.0774,-4.1472
CsNa(AuF4)2,16.7907,16.5731,-0.2176
Sr(TeAu)3,36.6835,36.5673,-0.1161
Hf2Tl2Ge,73.6931,58.6513,-15.0418
NaScBeBr2,15.6639,11.9038,-3.7601
Pm(ThGa)2,28.7816,32.946,4.1644
LuTa3O9,-0.0,0.0,0.0
RbCoGe2,3.7482,5.0422,1.2939
Rb2MnCo,25.537,19.9517,-5.5854
RbSrCaCo2,13.8354,10.339,-3.4964
YTl2Pd,42.0977,39.6271,-2.4706
YTiVP2,46.1063,35.2388,-10.8675
K2SmCuCl6,3.0753,4.8165,1.7412
Sc3AgO,52.7312,46.7399,-5.9913
FeReTc2,67.4647,58.0588,-9.4059
EuHoCuPb,28.671,31.0114,2.3405
CaBeSn,7.9675,6.1667,-1.8008
CdSbP2,14.2134,14.3515,0.1382
Rb2RuWI6,29.6005,27.1185,-2.482
AcYRh4,45.1684,36.7574,-8.4111
AgGeIr2,26.2974,29.5341,3.2368
RbRe2Sn,21.1275,24.6592,3.5316
CeFeSi3Ir,12.0404,11.8847,-0.1557
Na2BiOsO8,11.8305,13.2678,1.4374
Sr3Co5I12,6.3186,8.0228,1.7042
ZnCdSb3,32.8309,26.7179,-6.113
InIrRu2,28.4644,27.5723,-0.8922
ZnCd2Sb,22.8525,21.0426,-1.8099
LaYAs2Rh,28.1442,22.0661,-6.078
TiNi2Pd,12.3739,12.9765,0.6025
Ag(GeIr)2,27.3123,27.7782,0.4659
Sm3(YTl)2,28.9814,30.8464,1.8651
CaCu2Sb,17.5734,14.6393,-2.9341
EuSnRu,0.0,3.5472,3.5472
ScCoS2,33.3941,29.8361,-3.558
NaCr(ReO4)2,21.6628,18.3256,-3.3372
Eu2ZnIr2,32.9873,32.1147,-0.8726
Sb3W,37.5774,30.631,-6.9463
CeMnNi2,62.265,53.9805,-8.2845
Sc2Al4In,8.2654,8.1322,-0.1332
RbHfCo3,35.0286,26.9661,-8.0625
CaYPd,23.3192,20.0488,-3.2703
Rb3HfCo,32.9611,23.5447,-9.4164
Pm3SbPd,27.4646,26.541,-0.9237
Y2NiPtO6,29.5673,25.5408,-4.0264
Ca2SbW,25.4046,23.2786,-2.126
NaTmSbAu,36.2202,34.1226,-2.0976
ScTaO4,38.0998,36.4067,-1.6931
CaSbW2,33.943,33.0911,-0.8519
Ta2Ni2Mo,24.8149,27.3158,2.5009
ZrSc4Cd5,21.2093,21.1891,-0.0201
ZrScCd,40.7878,37.0332,-3.7546
CaRe2Pb,29.6867,34.5597,4.873
LaY2Rh,31.7103,25.7861,-5.9242
LiHgRh2,26.9363,19.5179,-7.4184
KTa2Ag,30.207,30.0853,-0.1217
CoB2Sb,15.5396,13.8508,-1.6887
K(SiTc)2,39.1738,32.2409,-6.9328
YFeRh,24.2068,19.8297,-4.3771
SrReOs2,43.3134,39.9174,-3.396
NaRe2Au,34.0265,37.1249,3.0984
Cs6RbAuF,22.0727,22.1365,0.0638
Nd3(YRh)2,28.0546,25.0722,-2.9824
NdYRh,28.7204,26.0427,-2.6777
BaCaRe2,29.1921,26.2206,-2.9715
NdYPdRh,34.253,28.3473,-5.9057
Ba2Ge2W,12.1874,13.4784,1.291
NdYPdRh,34.2839,28.3473,-5.9366
LiTmHg3,5.8184,7.0764,1.258
CuMoAsBr2,21.2679,16.3027,-4.9652
PRuCN,37.9491,30.4567,-7.4924
PrY2Rh,18.5906,16.7168,-1.8739
GeIr2O,17.7803,22.2852,4.5049
Cr2TcRh2,33.1937,26.2346,-6.9591
YMnCoP2,42.7648,32.9317,-9.833
GaPS2N,39.6483,29.5235,-10.1248
SrPr2SmAs4,9.817,10.203,0.3861
SICl2,20.4329,16.7087,-3.7241
Mn2Al2Ge,44.9177,34.6836,-10.2341
Li2AlSb2,17.473,13.7676,-3.7053
Nb2As2Se,74.5916,64.2374,-10.3542
Tm7(PtPb)2,44.6266,41.3988,-3.2278
Hg6S4Br3Cl,16.4397,12.2108,-4.2289
U3CuN,32.8984,39.2799,6.3816
Cs8Au5F,30.8419,31.4539,0.612
Sm2Y2Tl,20.5989,23.6344,3.0355
LiYIn,13.1287,13.2293,0.1006
K2AgI4,20.2198,18.9637,-1.2562
ZrAgPb2,58.7038,53.244,-5.4598
Tl3AgSb,46.2606,42.6008,-3.6598
TaOs2Pd,25.7086,32.8957,7.187
Ti2V7Tc2,99.8849,78.3644,-21.5205
Ca2Tb3Pd2,17.4112,19.4615,2.0503
Sm2YTlO,37.024,35.7896,-1.2344
SmYTlOs,39.0409,38.0343,-1.0066
Na2SrTeSe,29.8904,25.5869,-4.3035
PrPuSc2,19.5039,21.5585,2.0546
Ca2MoRuPb,20.703,21.0852,0.3822
NaSmGdAl,20.4281,21.3733,0.9452
PuPS4,50.3528,42.8082,-7.5446
CsSc2Mo,22.3521,22.5367,0.1846
SrNbAu,66.0393,57.5409,-8.4984
Sc4TaMn,62.7202,51.4538,-11.2664
Mo2As,4.9705,11.7226,6.7522
SnPt4Pb,71.7155,54.1342,-17.5813
Cu3As,3.4401,6.3038,2.8637
Zn2HgS,15.9237,12.8205,-3.1032
NaCaCuS2,31.4556,22.9775,-8.4782
PmY(MoN2)2,26.8778,24.8977,-1.9801
K2IrSe,29.2152,27.2295,-1.9857
Sr3NbAu,46.3185,41.6349,-4.6836
SrPmAu3,31.2242,34.1796,2.9554
Sc12NiSn6,20.1228,15.8892,-4.2336
AcPm2TaO8,10.7814,13.4412,2.6598
Cs8Au3F2,26.3403,26.7299,0.3897
Ca2Ac3Pr2,28.6495,29.5961,0.9466
Ta3NbTl2O12,18.8981,20.7862,1.888
CdSb3Ru,34.3685,28.7545,-5.614
Tb2Y(TlTe2)3,38.2928,38.3388,0.046
LiEu6,25.3361,25.9313,0.5951
BaLiHg2,2.4215,2.1121,-0.3094
SrPtAu3,44.4861,41.4095,-3.0766
CuPPb2Br,35.0154,30.4564,-4.559
SrTlP3,15.5542,16.6715,1.1173
Ca2Th2Rh3,40.6964,36.1564,-4.54
Tb4Y2Tl3O2,38.8319,37.5718,-1.2601
Ta2SnPt,37.9607,36.66,-1.3007
Y2PuTl3,41.7864,43.959,2.1725
Si3SnRu,22.6221,14.8327,-7.7894
CrOsRu,26.8914,26.7913,-0.1001
SrSn3Pb,25.7236,26.2995,0.5759
Y2ZrPd9,28.7917,26.4574,-2.3343
V7(MoRh)2,93.8312,73.9165,-19.9147
PdO,0.0,0.0,0.0
Ti2IrRu,20.9728,21.1326,0.1598
SrTbHg3,5.4654,7.7812,2.3158
Nb2V7Mo2,110.6858,87.6516,-23.0342
Sr2SiCl,29.8949,24.2256,-5.6693
TlCd2Ag,29.1662,28.1469,-1.0193
Mn2Al2Co,52.6819,38.7469,-13.9349
Mn(InSe2)2,46.965,39.4112,-7.5538
PdW2I,30.4497,33.5592,3.1095
CaCuSb,20.8449,17.2317,-3.6132
MnInSe2,53.5277,44.1023,-9.4254
PuInSb2,45.0772,41.0251,-4.0521
Sc2TaMn2,84.861,67.5824,-17.2786
MnInSe2,53.8327,44.1023,-9.7304
MnInSe,56.2949,45.5879,-10.707
CeSc2Pb,21.6666,23.8691,2.2024
Sc2TaMn,91.0286,74.8147,-16.214
BaSr2Tc,30.5856,27.6394,-2.9462
Mn2Al2Co,45.5909,38.7469,-6.8439
V7(TcMo)2,101.364,81.09,-20.274
PRu2AuC,31.2642,29.3123,-1.9519
KRb2HgCl6,1.1073,2.1595,1.0522
Na3TcBr,36.1351,29.0728,-7.0624
KRb2HoCl6,1.8254,4.1467,2.3213
KTl2PtCl6,18.7447,17.1564,-1.5883
Ti2PdRu,3.1757,9.5243,6.3486
YHo2Pb9,45.0354,46.1,1.0646
PuNiRu2,27.5764,30.8956,3.3192
BePRh,18.1713,15.2486,-2.9228
Cu(SbP)2,24.6553,19.3302,-5.3251
AsPd2C,27.4539,24.2373,-3.2167
GdTeAu4,43.0171,44.3031,1.2859
YPaIn,28.9107,32.388,3.4773
CeYInOs,26.2463,27.9055,1.6591
SbTe2PtBr,53.6572,44.3949,-9.2623
TeAs2PtBr,34.5696,27.9298,-6.6399
Sc(Pd2Au)3,21.615,23.9557,2.3407
LiCe2YIn4,19.3891,19.6515,0.2623
SrAc3Tc,55.2518,55.2675,0.0157
BeP2Rh,15.4513,12.5047,-2.9466
Ta3OsW,76.551,67.0052,-9.5458
Ca2Tb3Pt2,37.652,31.378,-6.274
Sm(DyGa)2,14.3496,17.7731,3.4236
Tb3IrPt,35.079,33.5033,-1.5757
La2ScCrS6,41.5691,31.4158,-10.1534
Ni3Pd7,14.4004,16.1904,1.79
Zr3TaSb,76.0578,63.6884,-12.3695
TbDyHg3,7.797,10.8483,3.0513
Tb2PrTm,19.9103,22.9196,3.0093
SnSbW2,29.7613,32.4517,2.6904
Pr2Ga2Au3,18.719,19.8677,1.1487
K3Na6Pb,22.1046,19.1186,-2.986
K3GaSn,13.4484,13.0365,-0.4119
Si3NiS,21.8722,14.8229,-7.0493
Cs2BAuF6,13.0546,13.534,0.4793
Y5ThIn3,17.4611,19.0671,1.606
ScTi3S,24.3718,23.0042,-1.3676
FeTc2Te,57.2537,49.5471,-7.7067
K(GaSn)2,10.9273,12.575,1.6477
LiAlSb3,30.3162,22.9992,-7.317
Y2UIn9,24.247,24.0356,-0.2114
TbHgPb3,33.5602,35.9964,2.4361
TaCuO3,0.3228,3.9323,3.6095
AlCd2Mo,16.2593,16.3374,0.0781
Tc2PtBr,72.9869,58.2096,-14.7773
TcPt2Br,71.8989,55.5415,-16.3574
AlCdMo,19.3454,17.4973,-1.8481
TiRuO4,6.5812,6.6731,0.0919
Tb2ScCrS6,36.2757,29.4274,-6.8483
La2YRhPb,43.266,34.0103,-9.2556
AlCdMo2,17.6901,15.6464,-2.0437
LaYPbAu,40.7189,38.8312,-1.8877
ScNbMo2,53.2339,48.5532,-4.6806
LaY2BPb,63.2624,52.401,-10.8614
CrRuPb,26.5155,22.3163,-4.1991
Na(TcC)2,59.8161,46.3407,-13.4754
SmUTl2O8,15.2793,17.8965,2.6171
LaYPb2,42.1702,39.6389,-2.5313
CeY2(MoN2)3,30.3832,27.4525,-2.9307
Li2AlRh2,17.7369,12.4516,-5.2853
Rb2BaMnCl6,6.7811,6.3774,-0.4037
Tl2InPt,52.798,47.7486,-5.0494
ZrAlPt,62.6878,49.708,-12.9797
LiAlRh4,35.1943,24.7931,-10.4012
SrNd2IO8,11.6713,11.8041,0.1327
P2RhAu,25.7741,23.55,-2.2241
NbSn2PbSe,57.3201,50.4768,-6.8433
PRhAu2,37.0858,34.7471,-2.3387
P2RhAu,26.0508,23.55,-2.5008
Tb(YCd3)2,18.4929,19.7391,1.2462
YPd2Pb,33.5905,32.0601,-1.5304
Zr2AlPt,65.4118,53.3386,-12.0732
PaTiO4,0.079,7.0417,6.9627
Na(TaC)2,36.8199,32.3749,-4.445
Ac2YSn4Pd3,47.2723,41.9207,-5.3516
ScV,41.1789,29.9152,-11.2637
CaEu2Ni,20.1741,19.1924,-0.9818
CoHg2S,13.7302,11.7944,-1.9358
Hg2Pb2S,30.0912,28.3199,-1.7713
TbPm2YIn4,17.4568,18.7427,1.2859
YTm2Ru9,19.7398,21.0241,1.2843
ScCrSiS2,42.3456,31.5683,-10.7773
Nd2YEr9,27.3101,28.8502,1.5401
ThCoAu,28.626,35.9997,7.3737
ThCoAu,40.9255,35.9997,-4.9258
ScCr2S,22.0746,20.2612,-1.8134
V(HRh)3,33.5711,23.7117,-9.8594
NaPmYTl,28.4259,29.1763,0.7504
Te3Rh2Pb,40.8625,37.0031,-3.8594
CoTe2Rh,34.7645,31.3837,-3.3808
Cd2OsW,94.1843,75.3936,-18.7907
Ho3TePt,36.7322,34.3755,-2.3567
Li2Si2O,19.1115,14.8932,-4.2183
K2MnSnS4,41.0084,31.2882,-9.7202
K2SmMnS4,40.4568,31.6743,-8.7825
PmY2TlO,34.7466,33.4867,-1.2599
CoTe2Rh,35.0838,31.3837,-3.7
Ti3GaCu,1.3632,4.0945,2.7313
U3SnO8,32.466,30.783,-1.683
Te3RhPb,46.8505,41.9907,-4.8598
GdGa4Ru,6.9368,9.6606,2.7237
Zr2USn,71.5605,65.3218,-6.2387
PmY2(TlSe2)3,39.7941,36.4311,-3.363
TmBiO4,-0.0,-0.0,0.0
Cd2GaAg2,15.5977,14.8067,-0.7911
UMnCoSn,49.5418,45.4575,-4.0843
NaGdAgPb,34.2082,32.3532,-1.855
USn2Hg,27.3861,29.3614,1.9753
Rb2MnCuCl5,9.5627,7.1044,-2.4583
PmY3Tl2S,36.0672,35.3944,-0.6728
Ni3PI,20.1623,17.6745,-2.4878
USnIr2,43.7792,47.7768,3.9976
USn2Au,39.1953,41.3433,2.148
PmY3Tl,17.8817,21.415,3.5332
U2InSn,44.5739,47.006,2.432
ZrRuO2,34.5343,29.8732,-4.6612
Y3ErRu3,24.5297,19.8292,-4.7005
UTiSn2,37.6344,34.267,-3.3675
CaPrRu4,20.0507,21.0522,1.0016
Sn2(BiPb)3,41.6885,45.2949,3.6064
In2GaAg2,22.1982,19.7208,-2.4774
Pr12Al2In5,3.8055,3.6909,-0.1146
Sr3HfTi,39.9557,30.9769,-8.9788
MoAsRhBr2,20.3573,17.8231,-2.5342
CaBe3Sn,16.9585,11.1742,-5.7843
YThPt2,63.6492,52.4753,-11.1739
Eu3(Cu2Ge)2,17.006,15.7165,-1.2895
SrPPd3,0.0,4.563,4.563
TmPuO4,4.9772,10.1375,5.1603
Y8Si3GeSe4,32.9088,27.6561,-5.2527
Tm3TePt,38.2196,35.8844,-2.3351
Tb3(PmCd)2,23.8596,26.2763,2.4166
LiTlP2S,28.8885,26.3548,-2.5337
GaCu3C,21.0,16.0921,-4.908
Sc2Cd2Si,22.127,20.3108,-1.8163
GaAgAu,28.9124,27.4154,-1.497
CaCoRh2,30.8809,22.6684,-8.2124
ScAgSb2,32.9859,26.2066,-6.7793
CoRhI3,25.7794,22.7309,-3.0486
GaAg6Au,30.5197,25.4061,-5.1136
Y6Ge2NF,25.0817,23.417,-1.6646
Gd2InTc,42.7306,40.2959,-2.4347
AcSmYTh,42.4043,45.4934,3.0891
CaAl4Pb,11.7342,13.3714,1.6372
Pm8P3CS4,30.0239,29.1322,-0.8918
NdYZnIr,25.9038,25.0694,-0.8344
MnFe6,0.0,0.0,0.0
UMn6,66.7905,50.7487,-16.0418
HfTi3Co,64.6455,48.5991,-16.0464
Pr2(YSe2)3,27.8748,24.0552,-3.8196
Pr2Sn3Rh5,22.8059,17.6658,-5.1401
BeCd3Si,24.0704,20.9054,-3.165
Re2SiPb,29.9821,32.7116,2.7295
K3Cr11S18,35.3024,26.3075,-8.9949
KCdF3,0.0,0.5623,0.5623
PrNdY2Th,17.9743,20.4148,2.4405
Be2CdSi,20.8874,16.8494,-4.038
LiPmYAl,25.481,22.0104,-3.4706
K3Tc5N12,3.1857,0.8199,-2.3658
Be2CdSi,20.7432,16.8494,-3.8937
Pm2TcI,41.0876,38.7483,-2.3394
Sr2AgMo,15.9301,16.109,0.1789
LiTh2Ru,37.0707,41.1513,4.0805
ScBe2Si,23.0029,19.2366,-3.7663
CaYNb3,94.3929,75.9166,-18.4763
BeP5,4.1489,5.3713,1.2224
BeCdSi2,23.5748,18.2592,-5.3155
Sr3AgMo,18.2059,17.1873,-1.0185
CaMg2W,12.7826,12.563,-0.2196
SrAgMo3,21.0944,20.4305,-0.664
ScCuRhPb,43.7255,36.8257,-6.8999
NaLaPb2,45.0085,40.8331,-4.1754
SrAg2Mo,23.5131,20.8745,-2.6386
AgMoPt2,56.3793,43.8432,-12.5362
BeCdSi2,23.5253,18.2592,-5.266
ScBeSi2,36.5261,28.6845,-7.8415
Ag2MoPt,41.9123,32.8348,-9.0775
BeCd2Si,24.7448,21.418,-3.3268
BeCd2Si,24.7535,21.418,-3.3355
Pr2GaBr2,6.5184,6.3201,-0.1984
NaAlZnAu3,26.4582,27.6314,1.1732
Mn2VNi,101.5078,82.7746,-18.7332
CaBeP,21.4202,17.6581,-3.762
TmHfSe3,43.4831,34.2859,-9.1972
CsNaZn,18.9809,17.5137,-1.4673
Hg2BiS,27.8499,24.6272,-3.2228
TiNbRu2,44.2482,41.8794,-2.3687
SrAgMo,20.8399,19.9922,-0.8476
CeNi3,6.5148,7.7888,1.274
CsBi3Rh,47.5397,45.0889,-2.4508
SrCr2As,9.6353,6.6778,-2.9575
CaBe2P,17.1594,13.9372,-3.2222
Lu2TlPb,42.3665,44.5968,2.2304
NaNdBiSb,36.701,34.4816,-2.2194
Ta6Al8O27F,5.8524,6.5933,0.7408
Pr3AlIn,0.0,0.4742,0.4742
Al3In3Au2,20.3613,21.4807,1.1193
Sm2GaBr2,15.0555,16.8716,1.8161
Ca(GdI4)2,21.2509,21.9996,0.7487
AlPb2Se,39.1627,37.7827,-1.38
Sm2YPb,28.854,31.2925,2.4385
Sb4Pd2Rh,38.4439,30.4165,-8.0275
AlIn2Au,22.5222,24.9334,2.4112
SrTl12Hg7,30.9992,31.4422,0.4431
Na2Si2Sn,18.6209,13.712,-4.9088
NaTmSnIr,29.4558,31.3334,1.8776
AlInAu2,29.2666,32.049,2.7824
Pr3(YTl)2,17.5195,18.4097,0.8902
Al2In2Au,15.7678,17.9974,2.2296
ThSc5Al4,11.1873,12.7059,1.5186
Mg4(BiO2)9,15.3095,16.4663,1.1568
SbPdRh2,40.4879,31.1839,-9.304
SbPdRh3,43.6967,32.1931,-11.5036
Sb2PdRh,39.7962,32.1132,-7.6831
YAs2Pd7,18.738,18.8792,0.1412
Al2GeI,18.8413,14.9659,-3.8753
Pr4Y3Tm4,14.3525,15.6075,1.255
LiBe2P,6.7839,4.87,-1.914
DyMgBi,27.9402,30.0287,2.0885
LaPm(ScHg2)2,11.3728,9.7088,-1.664
LiBe2P,6.5019,4.87,-1.6319
Pa2GaGe2,31.964,34.8502,2.8862
Cs2Th(AuSe2)2,43.5862,40.4918,-3.0945
BeC,26.0343,12.1957,-13.8385
LiBeP2,7.8536,4.9874,-2.8662
Zr2CrBr,68.0668,57.055,-11.0117
SrZrBr2,35.0576,30.3956,-4.662
Tb2ErScBi5,40.1152,41.303,1.1878
NaSrFeNi2,32.8157,23.7048,-9.1109
Ni8Ge,8.427,9.1268,0.6998
Zn2SbRu,15.8513,16.8366,0.9853
TbY2Al,29.3093,25.4246,-3.8847
BaPI,9.9023,7.8574,-2.0449
BPbW3,34.4012,38.7529,4.3517
Cs2YPI6,24.9895,23.4294,-1.5602
YTi2CoN,66.556,53.7532,-12.8028
Sn3Hg12S5,12.0602,8.8804,-3.1798
BeC,16.5316,12.1957,-4.3359
CdSb2Te,37.9439,32.4665,-5.4774
TbY2AlO,37.6703,31.6264,-6.0439
CeYMnAl,50.4292,40.6681,-9.7612
TaSb2As,34.0982,30.968,-3.1302
TlCdSb2,40.0263,35.4021,-4.6242
AcYO4,23.5938,23.0652,-0.5286
TbYBeAl,26.8295,22.9042,-3.9252
ZrFe2Ru,38.3205,30.4124,-7.908
Li3FePb,24.8464,22.3234,-2.5229
CoReTe2,32.7476,33.024,0.2764
Pm2DyPd,23.5,25.8203,2.3203
Ag3IrI,33.0656,28.4633,-4.6023
K2(TcS2)3,39.27,29.526,-9.7441
Mg3(Zn2Bi)2,17.3201,17.4442,0.1242
Cs3Rb(CuBr3)2,14.0273,13.5572,-0.4701
Li2FePb,30.4702,27.7293,-2.7409
Hf3MnNi,128.4661,95.1282,-33.338
AgPI,18.5513,15.0941,-3.4572
Y2NiOs3,63.1068,59.0373,-4.0695
NbCu2Sn,61.756,54.1358,-7.6202
TmSbRu,9.8116,14.6881,4.8765
LiAgMo,16.9005,15.5201,-1.3803
LiCaLa4,35.7291,24.3619,-11.3672
CsRb2ErCl6,2.1921,4.6824,2.4903
CsRb2TmCl6,2.3299,4.8094,2.4795
AgHgMo2,15.8891,16.3422,0.4531
Ca4Co2I,12.0085,10.6042,-1.4043
CaZrBe2,35.6558,27.8609,-7.7949
BaTe2I,27.0555,26.4247,-0.6307
Ca2YPd5,17.8035,17.4364,-0.3671
Y3BiC,31.2258,31.459,0.2332
HoCo4Ir,15.9179,19.0335,3.1155
Ca2MgCu2,7.6661,5.7152,-1.9509
Rb2LaYBr6,12.2723,10.9012,-1.3711
BaTe2I,26.3774,26.4247,0.0474
Sr2Tc2Br,42.0669,35.6979,-6.369
Pr2YTl,10.3278,12.4125,2.0847
Li3MnRu,24.6127,20.2006,-4.4121
BaAlTe2I,29.6942,25.8341,-3.8601
Sr3TaAs,28.276,20.8778,-7.3982
TaPdO2,27.8184,26.9727,-0.8457
SrMgBiH2,12.788,14.2022,1.4142
KYSc2,5.6852,8.2829,2.5977
Ti3CoRh,45.6828,35.2199,-10.4629
Li4MnRu,19.914,17.2995,-2.6144
Li(HPd2)3,10.9554,11.8776,0.9221
Pu3TcSb,58.9856,56.3826,-2.6029
AsW2O,23.9737,23.9906,0.0169
Hf7Bi,132.5933,94.6022,-37.9911
TaPO,15.2812,14.8426,-0.4386
Tc(RhPb)2,53.7732,46.4197,-7.3535
CaEuPb2,34.1949,36.1527,1.9579
SrEuCl,25.4322,24.6235,-0.8087
EuPaCl2,24.9882,26.6125,1.6242
Sr3SnRu,15.6217,16.672,1.0503
NdYAlRu,29.3253,26.6357,-2.6896
Na2NbC2,63.1485,48.7069,-14.4416
CaPr2Y5,6.1747,6.2938,0.119
PaZnO4,12.9795,13.2913,0.3118
PrY7Er3,16.9175,18.5504,1.6329
YCuC,24.6358,18.793,-5.8428
PrTm3Ni8,13.4364,14.724,1.2876
Sb2PtRh,51.4669,38.5294,-12.9375
CaFeCu2,25.4208,20.2198,-5.2009
Sr2TaBr,28.8013,22.4755,-6.3258
YCrAg2,37.2278,28.4603,-8.7675
YHf3Au,100.1004,73.9755,-26.1249
TaCuBr2,19.8464,21.1431,1.2967
Sc2Fe2Br,30.6691,29.4165,-1.2526
LiLa3Sb,40.0147,28.0856,-11.9291
Ga2TcSe,35.5221,30.665,-4.8571
CaMnPH2,32.1262,24.8049,-7.3213
NaPrSmOs,27.0399,25.2266,-1.8133
Pr2PuBi4,39.6293,41.4536,1.8244
Cr2Fe2W,19.8256,17.8166,-2.0089
GdAgAs2,12.1107,13.4088,1.298
Th7In,60.2313,62.3217,2.0904
Ge2P2Au,10.5484,11.8798,1.3314
Cs8Au4F,29.6214,30.0399,0.4185
TaTcIr3,41.6421,45.2515,3.6094
Zn2NiIr,20.0568,18.6145,-1.4423
Fe2NiAu2,32.7043,29.8615,-2.8428
La2YGe3Pt4,50.2334,35.7862,-14.4471
InSe2,38.9276,33.1183,-5.8093
Ga(BiPb)2,33.8371,36.1129,2.2759
Y2GaGe4Pt3,35.2328,26.2657,-8.9671
Y2CuGe3Pt4,47.2858,34.324,-12.9618
IrW2I,36.8427,40.1627,3.32