Formula,E_hull_DFT (eV/atom),E_hull_ML (eV/atom),Delta (ML - DFT)
As(PH)2,0.0,0.4232,0.4232
Na2GaTe,22.2679,20.411,-1.857
AcSnAu3,44.8701,46.4051,1.5349
Er2TmP,22.7693,25.5403,2.7709
Ti5Ga4Tc,14.742,15.6237,0.8817
Y3TmRh2,27.8411,24.443,-3.3981
BaCoIr2,19.6409,21.6478,2.0069
AcGdEr,41.128,43.868,2.74
TaCrI2,44.3996,33.645,-10.7546
Ti2TcSn,32.4552,27.865,-4.5902
Y6SbRu2,14.0751,12.2579,-1.8172
Sr2BiPb2,33.9784,36.1963,2.2179
Rb2ZnAgCl5,2.7474,2.7806,0.0331
Y3Sn2Rh,15.7348,11.713,-4.0218
Ho2Ta2C3,44.0186,37.7806,-6.238
Y3Tl2Rh,14.3883,17.1147,2.7264
Pr(In2Ir)6,25.8975,26.8395,0.942
Ir2AuBr,37.4154,39.5069,2.0916
Y3BiSb2,29.9126,28.7082,-1.2044
TaAl2Pb,24.1141,26.5451,2.431
TbY3Sb2,25.4901,23.9612,-1.5289
SnPb3Au,41.4346,42.927,1.4925
TlFePb,38.2254,38.2159,-0.0095
CeTa2TlO7,13.005,13.3495,0.3446
Sr(LaTi)2,21.53,17.3999,-4.1301
ZrSiOs2,49.4727,45.9616,-3.5111
BaTiSeS2,41.3692,30.6213,-10.7479
Li2(TmIn2)3,19.886,20.3404,0.4544
Dy(YPb4)3,43.4484,44.4663,1.0179
FeSb2As,44.9373,35.816,-9.1213
FeCuTe,41.7854,34.9755,-6.8099
Al(InSi)2,19.0621,15.8372,-3.2249
Ti2PbS,23.8825,22.8291,-1.0534
Nd(PuFe)2,24.1967,29.2348,5.0381
CoMoBr2,17.3089,14.6943,-2.6146
TbY3Th2,27.2588,30.5588,3.2999
RbReI2,18.546,20.3635,1.8174
Sm4SiGeI2,20.2994,21.5679,1.2686
PaFe3,0.0,0.0,0.0
Mn2TcNi,99.9556,82.3179,-17.6377
BaSrPtPbCl,33.3137,28.7084,-4.6053
K4La3ScS8,41.9615,31.0908,-10.8707
Sc3CdTc,56.6425,47.778,-8.8644
Y3TmAu2,21.4426,24.4727,3.0301
AlAsSe,35.7182,33.9186,-1.7995
InSb2As,30.0672,25.4558,-4.6113
TaP3,13.7645,13.8631,0.0986
Cs2RbYCl6,16.8803,17.423,0.5427
Ca2TaP,26.3835,24.6722,-1.7113
Cr2PbS,25.5861,22.763,-2.8231
InSbAs2,21.5599,21.1208,-0.4391
Ta2P,28.883,30.317,1.434
CeTi2Rh,20.7309,20.1705,-0.5604
TbSc2Cu,26.6231,23.962,-2.6611
Al3InSi,17.9622,15.5097,-2.4525
PmMgFe2,7.2052,9.6277,2.4225
BeNb3I,99.2373,83.5894,-15.6479
SrTiS2Cl,32.4091,25.3978,-7.0113
LaTl(AgCl3)2,17.7821,15.6541,-2.1281
CdSnSb2,32.553,28.0781,-4.4749
Ta2TiP,13.1619,19.4198,6.2579
TiCu2Sb,15.6934,14.9586,-0.7348
ScCdAg2,18.7575,17.0494,-1.7081
La3HoTh2,46.9567,41.8925,-5.0642
AlZn2Cd,8.0384,10.0331,1.9946
Cd3SnSb,25.1321,23.5008,-1.6313
Ge4IrPt2,36.7071,30.2664,-6.4407
Ho2ThSb2,36.3802,35.8889,-0.4913
Zr3WI,72.8501,62.5782,-10.2719
LaSnAu3,37.9804,37.2687,-0.7117
YIn3Au2,25.2003,25.6523,0.452
Nd3YIn2,17.3354,19.0674,1.7321
LiYHoCd,15.3261,17.6447,2.3186
SbRuBr2,29.8675,26.9803,-2.8872
K(ScAg)2,13.2572,12.1712,-1.086
Be2Al2Cd,20.708,15.6865,-5.0215
PuCo2Ge4Os,20.2348,22.4726,2.2378
Ca2LaMo,19.9274,17.1844,-2.743
AsAuBr2,20.256,21.2717,1.0156
CaTaBe2,21.0388,17.3875,-3.6513
Na2TaNiOs,28.3189,27.6732,-0.6457
NaLaTbIn,30.5297,26.8164,-3.7134
Ca2TaBe,20.0814,17.069,-3.0124
CrBrCl,25.7665,22.3352,-3.4313
Gd2Sc4C,19.9243,19.1981,-0.7262
HfThSc2,55.0719,47.5048,-7.5671
HoScBeRh,22.8206,20.1535,-2.6671
NaTiS3,38.2899,28.3476,-9.9422
NpTl(AgCl3)2,19.8864,19.4322,-0.4542
CaTa2Be,27.8812,26.423,-1.4582
CaTa2Be,27.8657,26.423,-1.4428
Ca2LaMo,19.9384,17.1844,-2.754
Pm3(NdIr)2,29.5902,31.6257,2.0355
Np2ScAg,35.5151,37.8517,2.3366
Sr4SI2N,19.1182,18.0568,-1.0613
TlInPt,41.47,35.8159,-5.6541
LiTe4W,35.6527,34.4046,-1.2481
RbSrTa,29.93,22.175,-7.755
Ti2BSbS,23.6567,19.3296,-4.327
Ti2SiRuS,22.0678,17.3387,-4.7292
KGdBi,31.6467,32.9517,1.3051
TlC2,60.9023,46.8751,-14.0272
AlSb2Au,35.0439,31.1841,-3.8598
BaPa2ZnO8,14.7164,14.435,-0.2814
RbSrTa,20.3792,22.175,1.7958
Sr(CdTe)2,28.6516,26.7277,-1.9239
RbBaBr,3.4826,3.7691,0.2865
Rb2BaSrBr6,7.8531,7.8975,0.0444
Rb2BaBr7,7.3545,8.1295,0.7751
AcSm3Tm2,33.8624,35.8238,1.9614
Rb3Y(PO4)2,0.0,0.0,0.0
AlInTe2,22.9677,24.0051,1.0374
TaMnGa2,58.7623,47.1032,-11.6591
LiTaNi2,6.7484,12.8362,6.0878
AcSm7Tm3,30.3531,31.4867,1.1336
LaSc2Pb,28.4088,26.1076,-2.3013
Nb3AgB,93.9481,76.9373,-17.0107
ZnFe,9.1405,7.2018,-1.9387
LaScPb2,40.0225,38.0259,-1.9966
Al2In2Te,14.6093,16.1939,1.5846
Er2Ni2Au,23.0463,25.392,2.3457
As3RhI,22.2177,19.2365,-2.9811
OsIO2,35.3182,32.1999,-3.1183
SrU2Cl8,18.0523,18.2694,0.217
Ca2TiS,18.0358,15.7657,-2.2701
Ga3Te4,27.4774,26.8738,-0.6036
Y3Zn2Ga,13.4767,12.301,-1.1757
Na2VSi,45.3036,35.4652,-9.8384
HoTl(PO3)2,8.8512,6.3136,-2.5376
Hg2BiAu2,27.7822,29.3804,1.5983
LiVSb,58.1593,46.0078,-12.1514
Nb2BSe,83.0666,69.9319,-13.1347
Mg6Te5O16,0.0,-0.0,-0.0
TbY3Hg4,21.7291,17.2776,-4.4515
Li4CuW,8.4983,10.113,1.6147
K2BaRh,18.5393,14.7801,-3.7592
LiCuW4,27.6242,31.3191,3.6949
ZrNb3B,107.2648,87.8461,-19.4186
TmSc2Pd,18.631,19.2878,0.6568
AlZnCd,10.0976,11.4553,1.3576
BaLaSc2,15.7554,13.3813,-2.3741
ScSb2Mo,30.7852,27.1488,-3.6363
PaPbO4,18.216,20.658,2.442
Sr3InBi,22.8335,23.9604,1.1269
La2U2C3,60.3292,48.3852,-11.944
Ce2Mn2C3,61.184,46.5979,-14.5861
FeAs3I,28.5096,24.2646,-4.2449
YPd2Au3,32.2314,32.5143,0.2829
Sr7(HgAu)2,16.6098,17.6336,1.0238
Tl(GaAu)2,29.1692,30.8062,1.637
Tb3Ce4ScS8,40.3293,33.6763,-6.653
ZnFe2,5.2333,5.6401,0.4068
FeCoNi,38.8534,29.568,-9.2855
Sc(CrFe)2,22.2638,19.2779,-2.9858
K3Mn5Te12,38.0462,31.6149,-6.4313
K2InSb,14.6864,12.6696,-2.0167
YZr5Nb6,113.0726,93.2585,-19.8141
NaAuBr6,17.2584,17.5275,0.2691
CaYSb2,26.4628,21.4302,-5.0326
Zr2AgPb,64.5895,57.8202,-6.7693
TlRe2Au,39.7803,44.6426,4.8623
Rb2SbMo,13.0546,12.713,-0.3416
Th2Nb2C3,84.8662,70.7513,-14.1148
Np2Os2C3,57.9933,51.4043,-6.589
Tb5NdTh2,36.3154,38.8475,2.5321
YTm2Pd3,20.2138,21.8119,1.5981
La2Te2Au,40.6111,34.5223,-6.0888
Zn2FeP,20.9914,18.1797,-2.8117
LaTl2AgCl6,15.7835,15.2711,-0.5124
ThSc2Ag,26.9406,26.914,-0.0266
ScAlTe2,24.3039,23.0196,-1.2843
TlTc2Ag,62.8452,54.842,-8.0033
LaCu3Si,17.8107,14.2807,-3.5299
CeCo3Si,4.9823,7.9849,3.0026
U2Pa2C3,64.5917,58.5817,-6.01
AcNdCuAs,25.9523,28.6543,2.7019
YHg3Ir,20.0708,17.4212,-2.6496
NbB3Os,39.1176,35.5456,-3.5719
Er(SnRh)2,35.1923,28.3399,-6.8524
CuMo2Au,33.0327,29.3147,-3.7179
SnPdO4,41.1661,33.6209,-7.5452
Nd2Ga2Br,14.5867,16.6881,2.1015
NbReB,50.0874,50.194,0.1065
BeCdBr2,11.5959,11.3505,-0.2455
CaNbB3,30.3484,27.017,-3.3314
NaYHgBi,32.026,28.4483,-3.5777
Ho3(ThSc4)2,20.0981,21.707,1.6089
BeCd2Br,13.848,13.5611,-0.2869
CaScNiRh2,28.3667,18.7062,-9.6605
MgV2As,70.0519,54.3254,-15.7265
Pr3YHo2,6.095,9.3481,3.2531
Pr3Dy2Y,5.7767,9.0368,3.26
SrAlI2,14.7314,14.3074,-0.4239
HoTh2Sc5,23.6136,25.5503,1.9367
CuMoAu2,41.1302,36.7884,-4.3417
LiCuPb4,32.7743,34.3176,1.5434
PrYAu,2.933,8.3316,5.3986
La3YSb2,42.2286,31.1667,-11.0619
YPa2Tc3,94.1799,82.666,-11.5139
TbYNb6,111.6214,92.5525,-19.0689
Ba3AgBr,8.2281,7.1031,-1.125
SiTe2Ir,36.1918,34.244,-1.9477
K2HgRh,18.5885,14.4567,-4.1318
BaNa2Br,14.6222,12.4364,-2.1858
BeTl2Re,36.77,38.5528,1.7829
PtPbO4,23.7033,21.1359,-2.5674
PdRhPb,39.8199,36.5402,-3.2797
Y3PPd,30.5054,23.8896,-6.6158
BeTl2Re,36.5345,38.5528,2.0184
NaSnBiPd,32.1687,29.6883,-2.4804
Tl5Au3,46.7545,47.9829,1.2284
CrAuBr2,33.6679,31.7251,-1.9428
BeTl2RePb,39.6657,41.1148,1.4491
AcP2IO6,21.9226,19.3523,-2.5703
LiPr(BiPd2)2,21.4597,23.6448,2.1851
ThGaSn,21.321,26.1489,4.8279
Er2Ni2Ir,3.0528,9.7916,6.7388
YPu2Tc3,95.9954,84.0833,-11.9121
AgSbOs2,40.7217,38.5597,-2.162
AgSb3Os,42.2766,34.8836,-7.393
NaPr2(H4Rh)3,8.7861,6.9922,-1.7939
Co3RhBr,21.8035,16.4111,-5.3924
Rb2CaBiCl6,12.2271,10.9653,-1.2619
YTm2Pt3,49.184,39.2976,-9.8864
Ba2BeAl,11.0626,8.1025,-2.9601
Rb2BaCaCl6,2.2404,2.2558,0.0154
Li4SmP2,6.0155,4.4834,-1.5321
CuMoAu3,43.1048,38.712,-4.3928
K(Te4Au3)2,42.1455,40.4601,-1.6854
NaTa2C,41.3783,37.9408,-3.4376
Ta3CF,47.5438,42.1986,-5.3453
Ce2TmGa2,14.1526,17.5738,3.4212
Hg2GeS4,34.0305,24.7787,-9.2518
TbBI,12.3068,17.058,4.7512
K8AgHg2O,10.3343,9.2775,-1.0568
CrCd2Au,23.761,24.1435,0.3825
CrGeRu,0.0,1.2756,1.2756
ZrScMnRh,62.5516,50.3206,-12.231
Sr2YAu2,24.3338,24.8248,0.4909
Ru3Rh3W2,50.5118,41.3863,-9.1255
Ca2TbYHg4,7.6844,7.5987,-0.0858
Rb2LaMoBr6,12.8335,11.6227,-1.2108
MoAsRu2,22.939,18.8234,-4.1156
TlP2Ir,31.8054,31.0281,-0.7773
Np3Bi3Sb2,50.4594,50.0622,-0.3972
NbBO3,18.5175,18.2577,-0.2599
Cs2AuF4,16.9912,18.1723,1.1811
CsRb8Hg2O,3.003,2.9606,-0.0424
Al(ReBi2)2,44.1974,45.6399,1.4425
Hf5NbBi2,113.3441,83.421,-29.9231
Ta2Si2Ru,16.561,17.4613,0.9003
CaAl2Zn,3.6343,4.7515,1.1171
YZr2Ir3,56.0831,53.5634,-2.5197
CrIr2Ru,33.4786,33.1261,-0.3524
Sc2(CdAg)3,19.9835,17.9535,-2.0301
Hf8Bi2Os,118.2409,87.2755,-30.9653
CaAlZn,7.1514,7.1704,0.019
Cs2Cu3Te4,26.0348,26.0837,0.0489
Sc2(InAg)3,22.0946,18.2819,-3.8127
Sc2TaB2Rh5,51.2164,42.0862,-9.1302
Ba2AcMoO6,5.7082,8.0709,2.3627
PmY2Hg3,16.8362,14.2336,-2.6026
NiAsP,17.6224,15.5678,-2.0546
Zr(SiS3)2,45.549,32.0914,-13.4576
Sr2RuBr,18.1235,16.9171,-1.2064
Tl2CoCuCl6,16.2421,15.4281,-0.814
Tl2CoNiCl6,17.0877,15.208,-1.8797
CaMnRu2,34.5454,31.056,-3.4894
CrAg2Ru,22.8731,19.3191,-3.5539
Na2Si2SnPt5,49.7778,34.3343,-15.4436
NiAsP,22.956,15.5678,-7.3882
Ni2AsP,22.0223,18.6458,-3.3765
ZrAuS2,57.8013,47.7506,-10.0507
Nd3Sc2Ag3,22.0858,20.52,-1.5658
CeHfTh,78.4232,66.583,-11.8402
HfBiP2,45.0462,37.3389,-7.7073
Tb2Y6Tm,12.8391,16.1161,3.277
Sc2(AgSn)3,28.4397,21.9242,-6.5154
ScTl2Sn,36.095,34.954,-1.141
YTi(GeAs2)3,0.3712,0.0,-0.3712
Th3Sc2Bi3,39.7886,43.4742,3.6855
CeHfTh2,75.3441,67.8834,-7.4607
Pr2YRh3,18.6008,14.304,-4.2969
KNaIr3,36.2407,35.6084,-0.6323
Sm2Th2C3,51.7483,45.3991,-6.3493
Pr6Tm12Tl,20.7819,21.7054,0.9235
Ca(SbIr)2,36.4067,30.3708,-6.0359
Tl2CrPbCl6,21.8309,22.1036,0.2727
Sm3IrPt,45.4829,36.1473,-9.3356
Al6ReBi2,18.6581,20.5794,1.9213
BaSc2C,11.8874,10.3231,-1.5643
CrCdAu2,30.7984,32.4545,1.6561
RbTl2CrCl6,12.6328,13.6976,1.0648
ZnCr(InCl3)2,11.2402,11.6333,0.3931
Cs3WBr,25.1562,25.4234,0.2672
Sc2(CdPb)3,27.9801,29.1997,1.2196
Sr2CoBr,13.6929,12.1597,-1.5332
Y6Zn2Au,12.3607,13.4577,1.097
Sm3Sc2Cd3,17.6349,19.3564,1.7214
Sr2NiPt,34.7096,26.0683,-8.6413
Y2P2Ru2C,34.4626,27.9851,-6.4775
Zr2ZnS,59.5018,48.4886,-11.0132
SrZnGaPt3,44.5639,33.3334,-11.2305
LiIn8,18.1819,18.6345,0.4527
Rb3(AgGe2)2,13.7916,10.2515,-3.5401
TaAgAs2,22.2518,22.2535,0.0017
Rb2AgGe2,10.6521,7.1774,-3.4747
BaNaH,0.0,0.0,0.0
Y3TmZn2,12.3602,12.5957,0.2356
BaNaGa2,10.2721,8.7137,-1.5584
Cs2ThHgCl6,8.1339,11.0299,2.896
Te2PbW,44.892,44.996,0.104
Na2Y(CuTe2)2,32.221,28.5715,-3.6495
Ta2AgAs,29.0245,29.9086,0.8841
Be3(CoRh)2,23.1119,15.6541,-7.4577
ScCdPdRh2,31.7827,24.3744,-7.4083
ScSnPdRh,30.287,24.733,-5.554
Ca2CuTe,15.9791,15.2298,-0.7494
Ta2AgAs,28.8761,29.9086,1.0325
Er3Sc2Cu3,30.308,26.7063,-3.6016
AlCdAu,23.0466,24.5304,1.4838
Ce2TmSc,21.4658,24.5701,3.1043
TeAs2,20.9571,22.5484,1.5914
Cu2TeAs,16.8147,14.1801,-2.6346
Be3(CuPt)2,33.4347,23.2606,-10.1741
NaCaVC2,56.9633,42.2482,-14.7151
TeAs,26.5509,26.1943,-0.3566
CuTeAs3,17.1494,16.7635,-0.3859
Sb2RuCl,22.9671,21.2178,-1.7493
TmAgSb2,32.9343,28.2692,-4.6652
CsTl(HgCl3)2,6.5925,7.1633,0.5708
GdAlAu2,31.1894,33.1431,1.9536
Cu3Te,15.7961,17.4254,1.6294
Cu2TeAs,16.6123,14.1801,-2.4322
GdAlAu,25.7954,28.4232,2.6278
EuGdAlAu,26.4778,28.8248,2.347
CaCu2Te,16.9116,15.4954,-1.4162
LiMo2SBr,27.9499,24.7017,-3.2483
CuTe2,26.9011,26.7541,-0.1471
Sr2SiRu,20.9556,18.6425,-2.313
CuTeAs,7.5824,10.2311,2.6487
CuTe2,26.9162,26.7541,-0.1621
K2LaRh,31.2532,23.5312,-7.722
LiTm2RhO6,8.6139,9.7827,1.1687
YHfTe2I,52.7293,43.0921,-9.6372
YSiBi2B,66.1249,56.6776,-9.4473
Zr4SiAu,67.6583,56.6728,-10.9855
Sc6GeTe3S2,34.402,29.2564,-5.1455
Er2TmNi2,14.5869,18.3752,3.7883
Zr2TeAs,61.9042,55.3792,-6.525
Rb2YBI6,33.4025,29.7123,-3.6903
Ba(CuP)2,7.6073,5.6576,-1.9497
CeLuOsPd,28.9912,32.7688,3.7776
AcTbGa2Pt5,60.8864,46.3151,-14.5713
PaNiAu,40.0643,43.4337,3.3694
Zr2TeAs2,51.0536,44.7207,-6.333
ZrTeAs2,40.0651,35.9042,-4.1609
TaSb2As,34.2882,30.968,-3.3202
Nb2B2Rh,61.0306,52.5043,-8.5263
ZrTeAs2,39.7912,35.9042,-3.887
Rb12Hg3S5,7.8897,4.9787,-2.911
CeSmAgSb,31.0068,28.8256,-2.1812
TbHfNi4,32.1158,27.6042,-4.5116
Pr3(SmIr)2,22.3977,20.7438,-1.6539
Be3(NiIr)2,13.87,16.8856,3.0156
Zr6FeS2,77.4471,62.496,-14.9511
Na3Co2(GeO4)3,0.0,0.0,0.0
TaSi2Ru,23.5272,20.8533,-2.6739
TbSc2GaPd4,19.1679,18.6057,-0.5623
CrOs2PbO8,12.8255,12.6932,-0.1323
AcLa2,55.9866,45.7205,-10.2661
NaCdBr2N,14.1471,13.4268,-0.7203
Nb3NiB4,53.7391,46.0094,-7.7297
YGaBi2Te,35.3273,35.2458,-0.0814
YZrB2Br,63.7715,51.9363,-11.8352
AlRuPt,36.2077,30.2115,-5.9962
SrTcMo2,35.4537,33.3485,-2.1052
PmY3Er2,15.4344,18.6572,3.2228
CsRbGeAuF,22.9987,23.3335,0.3348
Nd3Tm2Sc3,13.9144,16.4049,2.4906
Tb5GaAg4,26.3047,24.86,-1.4447
Li2BeTc,24.4966,21.0322,-3.4644
FePbBr3,23.6417,20.6199,-3.0218
NaHoCuS2,28.958,24.3005,-4.6575
Pr6In3Sb,2.712,4.1686,1.4566
Ga2Sn2Pd,16.5079,14.8312,-1.6767
YTeAsI2,22.44,22.3763,-0.0636
SrTc2Mo,54.1796,47.399,-6.7806
NaSc4USe8,34.1936,29.9357,-4.2579
SrTc2Mo,54.3088,47.399,-6.9098
Tb2Ta2C3,43.5669,37.3079,-6.259
K2TcSb,41.2237,33.9135,-7.3102
Nd2I2Br3,17.0413,19.1146,2.0733
Y3Sc2Pb3,19.6587,23.2133,3.5547
Ta2ReN2,62.9085,59.2633,-3.6452
PuTl2CuCl6,19.7014,20.8888,1.1874
TbSm3Os,35.073,31.2048,-3.8682
Y4GaRu2,18.9167,16.4267,-2.49
NiBS2,24.3644,19.2721,-5.0923
Hf4Co2Sn5,62.5085,47.9524,-14.5562
NpSbAuS,47.4509,42.9884,-4.4625
CrTe3,34.3605,32.0056,-2.3549
GdHoTlNi,29.7001,31.2448,1.5448
YTeI2O,35.6055,32.7676,-2.838
K3Se5I12,20.7861,18.884,-1.9022
Tm2AgSb4,38.3214,32.2809,-6.0406
PrNd2YTl2,22.3582,24.9674,2.6092
TlFe2AgCl6,8.9156,8.0623,-0.8532
K(GeSe2)2,3.4211,0.0,-3.4211
CsFe2HgCl6,3.8627,4.0493,0.1866
Pr2Nd6Y3Tl,19.7016,20.9148,1.2132
Li2CaI4,12.948,13.5142,0.5662
SbTeS2,46.3409,36.0454,-10.2955
HfCoSn2,48.038,39.3107,-8.7273
FeAg2HgCl6,10.6509,8.3653,-2.2856
Nb2BTe,74.794,64.7902,-10.0038
YTc2SnTe,81.4414,68.3892,-13.0522
Nd3Er3Sc2,21.5667,23.2539,1.6873
CoCuNi4,13.4424,12.2975,-1.1448
ZnSbI3,24.4888,22.6028,-1.886
Ba2PmYS4,43.5735,34.1123,-9.4612
Ta3PdN,22.2214,27.2288,5.0074
Co6CuNi8,36.2236,26.2922,-9.9314
SrWAu2,41.3215,36.7542,-4.5673
Tl2FePdCl6,11.5292,12.0007,0.4715
Ho2Al2C3,34.6206,27.6627,-6.9579
LiEr2RhO6,8.3594,9.5327,1.1733
SrCaLa2Zn,24.3389,18.506,-5.8329
TcHgW2,35.2875,37.1298,1.8423
SnPd3Rh,27.9646,23.4432,-4.5214
BiSbSe,49.2358,43.4201,-5.8157
Sr3BW,24.8897,18.9844,-5.9053
Rb3Y3NpS8,36.3671,28.6726,-7.6945
PaIn2FeO8,15.8709,15.7909,-0.08
Nd2Pa2Se7,45.8263,41.3597,-4.4666
LiLa2RhO6,25.0668,23.4196,-1.6472
CaPr3,0.0,0.1106,0.1106
Rb3Sm2YO6,10.5544,10.7458,0.1915
CrRuO3,13.04,9.7742,-3.2658
RbEu(CuP)2,15.4633,13.4261,-2.0372
Tb3Pm3Sc2,22.0672,22.267,0.1998
CoGe2Os,9.6747,14.4969,4.8222
SrGeOs,4.1554,10.3125,6.1571
YNb3Cl,117.4136,99.6431,-17.7705
CuTe2MoBr,33.5337,27.2548,-6.279
TbZrTi2,35.9533,32.2831,-3.6702
CuNiS2,31.4664,25.963,-5.5033
CoGe2Os,9.7911,14.4969,4.7058
Tb2ZrSc4,25.0954,24.0269,-1.0685
GaPF,2.8026,2.5599,-0.2426
LiSmP,10.7242,10.0095,-0.7147
SrCoGe2Os,16.6175,18.2152,1.5977
MnCoIr4,47.6011,45.6386,-1.9625
Pr3Bi5Se12,27.2589,23.4801,-3.7789
Y8Ge3Te4C,25.9292,23.2724,-2.6567
CoGe2Os,16.7201,14.4969,-2.2232
Pr3Sc2Hg3,0.0,0.7672,0.7672
CeRhI2,30.0697,27.2586,-2.8111
TiSbN3,10.9581,10.1234,-0.8347
Pr6Sm3Y,3.1815,4.9765,1.795
Pr3TeO6,3.4158,1.1368,-2.279
GaPF,12.3814,2.5599,-9.8215
KCoAg,17.5651,15.5636,-2.0015
GaP,0.0,0.0,0.0
Pr2GaHg,3.9924,4.114,0.1216
K2TcIr,36.9336,34.6749,-2.2586
GaP2,2.201,1.9168,-0.2842
HfPd,71.9125,56.0895,-15.823
SrCa,12.7295,10.8522,-1.8773
CoSnTe2,28.2235,28.3371,0.1135
YEr2Nb,54.077,50.3287,-3.7483
CoTc2Ge,50.2622,44.1821,-6.0802
SiIBr,7.135,8.882,1.7471
Pm2RhI,30.3415,28.7272,-1.6144
NaSrAg2,23.2228,18.9003,-4.3225
LiAlIn4,12.9339,13.4532,0.5193
Co2TcGe2,17.7936,18.3027,0.5091
TlIn2Pt,41.3207,36.9121,-4.4086
Al2CrCd,9.0856,9.7092,0.6236
LiCr4W,12.7613,13.7991,1.0378
HfCo2Mo,35.2252,29.701,-5.5242
Zr2SiTeS,61.9163,49.3823,-12.534
Tb(BRu)3,3.0933,6.8072,3.7139
HfCoMo3,39.9895,34.0373,-5.9522
SrCo2AgBr,19.1717,15.1961,-3.9756
AlMo2Pb,31.9579,28.1439,-3.814
Th2U2C3,64.2809,58.1769,-6.104
Nd2Cr2C3,52.3956,43.8546,-8.541
Be3AlIn,16.8201,12.9266,-3.8935
LaYSc2Ni,45.8997,37.7928,-8.1069
Tb4SiGeTe2,25.6913,26.2548,0.5635
BeAl2In,18.2309,15.0937,-3.1372
Al2Pt,25.9232,22.1781,-3.7452
Rb4Y3PaSe8,29.7702,25.8864,-3.8838
ScNbS2,66.7452,56.0118,-10.7334
BeAlIn,19.8312,16.3163,-3.5149
TlIn3Pt,39.8292,34.8632,-4.966
Co2Si2Ni,24.343,17.4889,-6.8541
Tc3SeI,72.0404,59.3368,-12.7036
BaAl2Br,10.3059,8.2329,-2.0729
TaNbO4,28.6859,25.8427,-2.8432
Ba(ScAu)2,15.772,19.129,3.3569
Zn(CrMo)2,4.4144,8.3116,3.8972
CoTeIr2,34.1662,37.1657,2.9995
TbZrS2,57.9521,47.3239,-10.6282
ReC,20.8147,15.3447,-5.47
ZrTc3S,88.9311,71.0111,-17.92
MnAl3Tc,43.8984,33.6461,-10.2523
LiIn,0.0,2.4257,2.4257
NbGa3B,37.703,30.7466,-6.9564
NbNi2Hg,33.907,31.2196,-2.6874
ReC,46.2093,15.3447,-30.8646
Al2MoPb,23.862,22.555,-1.307
KVSb2,53.0988,41.5075,-11.5913
SmMn2Sn,54.3958,44.9829,-9.4129
Ba3NaOs,13.6242,13.3172,-0.3071
NaVCr2,38.32,32.0062,-6.3137
Zn2InSi,13.4077,12.5813,-0.8264
Mo3IrRu,29.7179,25.8238,-3.8941
Ac3SmHo,37.1221,41.3845,4.2625
Zr2UFe2,43.5819,42.2933,-1.2885
Li(InOs)2,20.5584,24.0995,3.541
ZrPd3Ru,34.7203,32.0042,-2.7161
Th2FeBr2,30.1089,33.4468,3.3379
Re4Se2I,42.322,40.4878,-1.8342
Hf3ZrS6,78.0198,55.4009,-22.6189
Al2Re2Tc,29.4611,29.8956,0.4344
CuP2Br,11.5555,10.1835,-1.372
Fe(CuRh)2,37.3774,28.8537,-8.5238
ZrMoS2,48.815,39.6441,-9.1709
Pm4YEr6,26.5923,28.6233,2.031
ZrMoS2,56.1748,39.6441,-16.5307
YSc2Pd9,20.1662,19.1578,-1.0084
K2ScTa,71.8867,58.5704,-13.3162
Y2ScPd9,22.415,20.8351,-1.5799
CaY2SbN,40.6567,32.2216,-8.4351
Y2ScPb9,41.9283,42.9807,1.0523
Ca3(AcPm)2,27.7863,29.5287,1.7424
Tb3SmOs,27.4257,28.7274,1.3017
ZnCr2Ru,5.396,7.4812,2.0852
InIBr,14.9952,15.7805,0.7853
Sr3ZrNiO6,8.1852,6.4452,-1.74
CaMnIr,52.3087,38.9271,-13.3815
In6IBr5,16.0541,16.6295,0.5754
YAl(SiNi2)2,31.6616,27.5492,-4.1124
Mn2Ge(As2O7)2,22.1825,21.5571,-0.6254
CrSb(As2O7)2,-0.0,0.0,0.0
DyCr(GaO3)2,11.6938,10.1242,-1.5697
YBeSi2Ni,47.2258,38.6128,-8.613
ZrAgSnS4,47.7728,37.6808,-10.0919
ScAl2Pb,17.0481,18.2521,1.204
Y7Sb,17.5353,17.588,0.0527
Li2In2Cu,8.6837,8.4356,-0.2482
Y2NiSbP,65.9703,54.1054,-11.8649
ZrSN,43.1457,35.8154,-7.3303
Na2SrSm,22.236,20.7021,-1.5339
NbAsBr3,37.4445,32.1879,-5.2566
Er2Re2C3,57.3806,47.9352,-9.4454
Y2CuSi2Ni5,32.7866,28.8749,-3.9117
K2HfW,48.8608,39.7014,-9.1594
LiHfNiGe,44.0314,31.9555,-12.0759
NaCe(SbAu)2,38.3678,35.475,-2.8927
Li2La(PrIn)2,12.922,11.0802,-1.8418
Li2CaIn2,10.7765,10.2174,-0.5591
SrC3Se,52.7675,37.4693,-15.2982
La2NbI,67.2095,52.8003,-14.4092
NiRuO4,2.2984,3.5613,1.2629
Y2CuSi4Ni3,40.126,33.1906,-6.9354
Pu2ZrS4,56.3171,47.0565,-9.2606
K6H12N,3.9727,3.7763,-0.1964
PPt2Au,57.4731,45.8727,-11.6004
Er2Tm2C3,43.0142,36.8972,-6.117
Y3Sc2In3,15.7569,15.4608,-0.2962
MnNi3Au,54.4264,48.2759,-6.1505
NaCrB,11.5062,0.0,-11.5062
VSi2Ru,38.8088,30.6399,-8.169
La2Fe2C3,40.5591,27.8587,-12.7005
PtS3I,57.1544,41.4253,-15.729
Sb2Au5,43.1443,41.9567,-1.1876
LiIn2C,23.7238,19.9579,-3.7659
Ca2TaCu,16.1501,16.4882,0.3381
Cs2Si4NiO10,-0.0,-0.0,0.0
Ba4AlBr,8.8103,6.714,-2.0963
Zr2BeCd,54.8853,47.2546,-7.6306
CsTbSeCl2O3,0.0,0.0,0.0
Na2CrO4,3.1565,2.7626,-0.3939
NaVO3,9.5952,8.2451,-1.3501
YSi2NiAu,50.045,41.9221,-8.1228
HfSiPt,82.0849,58.7604,-23.3245
Zr5ScC4,73.2699,57.4586,-15.8114
Sc(CuMo)2,27.0984,20.0621,-7.0363
NaSc3Ta,59.9093,49.3857,-10.5236
CeY2Sn,28.7313,25.0905,-3.6408
Y3Tm3Sb2Os,30.1046,28.5786,-1.526
Cu2P2W,55.117,45.3222,-9.7948
BaTl2GeCl6,10.0922,11.9089,1.8167
PmMn6,89.3818,68.9952,-20.3866
GdPt,46.8902,37.3504,-9.5398
BaCu2P,10.839,9.0551,-1.7839
Y2NbSiP,60.9834,47.6997,-13.2838
K2RhI,24.1677,19.7349,-4.4328
LiCeBr2,20.3494,20.007,-0.3424
Ca3(NdSm)2,16.4032,18.2276,1.8244
Al2TePd,16.5806,17.4687,0.8882
ErCu2As,13.0107,15.4749,2.4642
Ta5Re3,37.5731,43.0503,5.4772
YSi2Cl,42.5524,40.1533,-2.3991
TcIrRu3,31.0287,29.6183,-1.4104
RuAuBr,32.7668,30.0336,-2.7332
Cs2AuF5,15.8419,17.036,1.1941
ZrNi2S,35.2327,30.1073,-5.1254
TlRe2O6F,20.5222,17.4997,-3.0224
Tm3Sc3In2,19.3444,19.8706,0.5262
PrGe4Bi,14.4395,15.7533,1.3139
LiLuP,13.8638,13.5429,-0.3209
ScHg2S,21.4024,21.2816,-0.1208
SrZrS2F,40.4196,31.2894,-9.1302
TaTlI3,31.7205,31.8064,0.0859
SrZrSeS2,55.5636,43.1048,-12.4587
Li3Lu,8.9247,10.1854,1.2607
Pr3Er3Sc2,10.6647,12.2102,1.5455
CaTb2YHg4,10.0761,12.2492,2.1732
ScPdRhAu,33.3507,30.0159,-3.3347
Sr(ZrS2)4,64.6828,49.7663,-14.9165
Tl(PRu)2,17.9138,19.8919,1.978
TbYEr4,26.337,29.4711,3.1341
NaCeInGe,19.4163,20.0519,0.6357
Hg2RuBr,12.0795,10.4584,-1.6211
Y2BeTcO,67.61,56.5924,-11.0176
LaFeTc2,59.996,48.4066,-11.5894
Hf(GaAu)2,50.7258,43.7541,-6.9716
TlPRu2,22.3582,24.8716,2.5135
TbCeScS3,35.8372,31.2541,-4.5831
SiNiRu3,22.7268,17.8762,-4.8506