Formula,E_hull_DFT (eV/atom),E_hull_ML (eV/atom),Delta (ML - DFT)
Tm4Ni2Ru,15.4891,19.0043,3.5152
Sr2GaAsSe5,33.5011,29.3671,-4.1341
Ac2BeSi3Pt4,56.5326,43.1743,-13.3584
PaIr7,46.1557,49.2699,3.1142
Rb(InCu)2,8.5204,10.167,1.6466
Li2MnOs,35.8527,31.4161,-4.4366
LaAgBi2,42.9867,39.2683,-3.7183
PmTh4Pb15,53.6308,54.7836,1.1528
Na2Bi2Pb,42.0052,40.9441,-1.061
Hf2Zr2Sc3,63.9257,49.066,-14.8597
YBe3Hg,11.9223,9.1639,-2.7584
Yb6Cr,32.6139,32.5152,-0.0986
La2GaTe5Au,35.6158,31.816,-3.7998
Rb2BaGaI5,10.921,11.3869,0.4658
La3(ScAg)2,32.5498,23.8819,-8.6679
Mg3Ta,11.42,13.5686,2.1486
Ba3YHg,22.6804,18.6303,-4.0501
Sc2TaGa,67.8402,57.5622,-10.278
CsTaN2,17.4092,19.0023,1.5931
TlAgPt2,65.3488,50.2174,-15.1314
Y2CrHg,38.9676,29.787,-9.1805
NaScS2,38.1302,36.0687,-2.0615
YHg3Mo,17.0293,11.6712,-5.3582
LaGa2AgAu5,37.0789,34.9514,-2.1275
Rb(TmCu)2,12.1981,14.7955,2.5974
Ac2HfGe4Pt3,56.9223,45.4377,-11.4846
Y(HgTe)2,23.5404,20.6148,-2.9255
YTm5Hg4,19.9136,20.4117,0.4981
Y3HgAs,25.1411,20.3829,-4.7582
Rb(Bi2Te3)2,42.8446,42.1021,-0.7425
Na(YTe)2,21.4941,21.5444,0.0503
BaZnCoF6,3.4557,3.4168,-0.0389
RbBiTe2,34.9193,34.4923,-0.4269
YAl4Si,23.5631,18.851,-4.712
Sc2NiRhAu,23.2715,20.8542,-2.4173
SiSO2,10.8659,16.261,5.3951
MnAg6,42.0611,31.3337,-10.7275
Sc(AgSn)2,28.2333,22.6416,-5.5917
Zn(CoGe)2,8.1189,6.7395,-1.3795
CrNi2Os,26.3936,26.9656,0.572
Al4AgTe,14.4841,13.9064,-0.5777
Co2CuIr,31.4776,28.3899,-3.0877
NaScBeTe3,23.445,21.115,-2.33
Y2ZrHg,45.0267,39.5972,-5.4295
ScAgSn2,27.547,23.0549,-4.4921
NaScS2,43.9268,36.0687,-7.8581
NaNiS3,40.2308,29.5449,-10.6859
AcNdPtRh,56.1431,47.691,-8.4522
LaCo2Cu,34.1139,27.1537,-6.9602
NaWS3,46.2467,35.7489,-10.4978
IrWSe4,45.4383,41.4751,-3.9632
Er2PaCo2,27.2997,30.6046,3.3049
TmRu3,19.86,23.3531,3.493
AlCo2Tc,39.3033,30.5851,-8.7181
Cs2SrN,13.3503,15.7088,2.3585
Mn5Cr2,73.6163,56.875,-16.7413
Tm3(ScNi)2,16.668,18.909,2.2409
PtWSe4,53.2465,44.0633,-9.1832
InGa2TcN,27.1851,24.5359,-2.6492
Be3(In3N4)2,23.8427,20.3067,-3.536
Nb2ZnCo2,59.2556,48.4885,-10.7671
GaTcN,26.667,24.7385,-1.9285
ErCo6,10.4535,11.8215,1.3681
Ga2TcIr,38.0433,36.1103,-1.933
Ga2CuTc2,37.18,32.1255,-5.0545
AcTbPtAu,56.1035,51.2917,-4.8117
Pr3(DySc)2,7.2633,9.493,2.2298
YZrHg4,24.4493,20.0374,-4.4119
VNiOs3,53.8281,50.3401,-3.488
TlCdInSn,27.6877,28.9838,1.2961
Na2Tl2Pt,45.0637,38.5126,-6.5511
LiMg14Cu,3.9225,3.8467,-0.0758
Y11Ho9Er4,21.9033,23.5286,1.6253
Ga3TcNi,25.4922,23.0011,-2.4911
GaTcNi2C,34.7188,28.937,-5.7817
PrYHgBi,26.6424,22.8323,-3.8101
Tl2CdInIr,36.9191,38.0672,1.1481
Y6ErIn,17.4149,18.1223,0.7074
PmScBe2,13.3346,11.9835,-1.3512
Eu2BeN,36.9444,33.0258,-3.9187
Pm2SbP,23.1672,23.706,0.5388
SrYHg2,15.5617,13.0504,-2.5112
CrGaTc,21.3175,23.0112,1.6937
Eu(BeN)2,32.9949,28.3501,-4.6448
YTc2Hg,78.8374,66.3226,-12.5148
ScPa2Nb,70.5571,66.6133,-3.9437
Zr2Ga4Tc,46.2246,39.9043,-6.3203
Ac2PuSn4Pt3,54.5412,47.4748,-7.0664
Be2GaTcBr,24.1234,20.4987,-3.6247
Tb2Pr3Sc2,7.3604,9.2615,1.9011
Ga2ReTc2,40.9535,38.6422,-2.3112
Ac2Be3SnPt4,51.3145,40.1814,-11.1331
Tm2ZrNb9,119.7182,98.9049,-20.8133
Ac2Be(ZnPt2)2,57.7089,44.0786,-13.6302
Ta2TiNi,16.4014,22.2828,5.8814
LuRe6,40.1772,43.4592,3.282
Ac2NdZn3Pt4,52.6578,42.6629,-9.9949
Ac2Pu(PtI)2,59.868,52.5592,-7.3088
Y2HfHg,61.1035,44.2275,-16.8761
AcPm(AsPt)2,46.8265,39.4915,-7.3349
In2ReP,41.5291,36.7592,-4.7699
LiMg6Cu,5.2836,4.531,-0.7526
Pr2U(H4Rh)3,11.2262,9.8057,-1.4205
Co2HgGeSe,14.5521,13.6616,-0.8905
Tl3RuBr,39.8909,38.6718,-1.2191
TlAgPt2,65.3622,50.2174,-15.1449
InRe2P,46.6824,41.9355,-4.747
BaAcCdPt,42.8359,37.6744,-5.1615
YThHg4,18.9514,17.9797,-0.9718
Li2MnMo,29.1645,24.9871,-4.1774
Y3HgSb,32.0076,24.5923,-7.4153
BaGaTc2C,54.4657,42.0774,-12.3883
TePd,16.5907,20.1504,3.5597
Ac3Si2BiPt9,71.5732,53.9531,-17.6201
CoSiBr2,17.6277,12.7806,-4.8471
LiMg6Zr,14.3504,12.9342,-1.4163
MoPt7,80.081,56.6845,-23.3966
TbNdGa2Pt5,56.3969,41.9235,-14.4734
EuBe2Rh,19.007,17.8054,-1.2016
Y2ThHg,41.7591,35.8166,-5.9426
Nd4RhSe2Br,30.5945,27.8643,-2.7302
YHg2Pb,22.6106,21.6817,-0.9289
La2TaCu2,26.6338,20.8392,-5.7946
TbYHg5,10.573,9.3675,-1.2056
Tl(AgPt)2,58.7246,44.8503,-13.8743
Y2V2Hg,65.8597,50.5293,-15.3304
GaTcIr,41.1473,40.8663,-0.281
Zr2Ga4Tc,45.8142,39.9043,-5.9099
GaReTc,38.3923,44.7734,6.3811
CaY4Si,26.3701,21.9041,-4.466
AcNd(AsPt)2,46.8042,39.476,-7.3282
Rb(NaPb)2,31.1624,29.669,-1.4933
Tl2Zn2S3,30.448,25.9626,-4.4854
LiZr2Br,61.1945,51.9261,-9.2684
CsZnPO4,4.7989,2.7604,-2.0384
NaPtS2,56.4255,41.5948,-14.8307
BaThPb,25.7832,31.8202,6.0371
GdY2Hg,32.4903,26.9568,-5.5335
Ga2TcNi,28.7582,26.6478,-2.1104
SiSbTe2As,39.7758,33.4935,-6.2823
NaAuS2,46.4977,37.6777,-8.8199
YLu2Hg,29.2545,27.8389,-1.4156
TlGa2SiTc,35.1079,31.0665,-4.0414
Ce2NiSb4Pd3,30.7397,26.1696,-4.5701
KCuAg2F6,8.3474,8.0669,-0.2804
TlGa2TcGe,33.9646,31.5411,-2.4235
GaTcPAu2,47.4021,42.0382,-5.3639
MnCr3Te4,36.7537,32.0718,-4.6819
ZrTeSe4,54.8916,46.5098,-8.3818
Na2Si2Pd,15.9164,11.2013,-4.7151
LaCeGa2Pd5,21.8294,20.2774,-1.552
RbNa7,21.8102,17.0496,-4.7606
GaB,0.0,0.0,0.0
KNbSb2Te,56.9827,46.8844,-10.0983
ThTe,53.0091,55.1192,2.1101
RuPb3Br,42.9803,40.8013,-2.1789
AcBiPtBr,49.587,46.7914,-2.7955
K2HgBr6,7.3481,7.8654,0.5173
CdGa2Bi2Au7,39.6275,40.571,0.9434
Ba2CrCoO6,3.7864,3.368,-0.4184
BeAsI2,21.559,22.9352,1.3762
Ce4PrY,18.8212,20.5447,1.7235
Na(AuBr4)2,18.9668,19.0141,0.0472
YHfHg3,39.1679,27.8706,-11.2973
Ac2ZrAs3Pt4,60.6433,48.6373,-12.006
Sc3(CdGa)2,9.7478,11.639,1.8911
Zn(SnC)2,35.4288,27.534,-7.8949
Ga3SbW,23.3361,21.8176,-1.5185
In2FeSb2,29.8647,25.3527,-4.512
Ac3Pr2Nd7,29.9267,31.76,1.8333
GdGaHg,12.1145,14.2889,2.1744
GaPbAu2,38.9102,40.4127,1.5025
Nd4PtSeBr2,31.7971,28.4199,-3.3773
YAlHg,25.395,19.8667,-5.5284
Sr5AlZn4,10.0372,11.1774,1.1402
NaHoS2,34.7018,28.9794,-5.7224
TlP2Br,13.7456,15.286,1.5403
LaPrYHg,24.2804,18.1174,-6.163
Zr2Sc3In2,37.3027,32.5143,-4.7884
Ag3As4,19.5836,16.5256,-3.058
YHgB,61.3185,51.2124,-10.1061
Y(HgGe)2,10.2771,9.3801,-0.897
BaMnAg2,40.7601,31.3473,-9.4128
Ba2Tm(CoO3)2,4.4212,4.7528,0.3315
SbPbW3,44.9704,45.5611,0.5906
Ba2Pm(CoO3)2,3.9648,4.1577,0.1929
Ba3Ce(CoO4)2,3.2789,2.98,-0.2989
Ba2Co2PbO6,6.9854,6.5275,-0.4578
ZnCrCoRh,24.8225,16.9253,-7.8972
Yb(GeIr)2,21.0387,25.4006,4.3618
Sm7DyY12,18.6717,19.8415,1.1698
PmGa2PdAu5,34.9577,34.7841,-0.1737
CsNd(BO3)2,5.3524,5.3868,0.0344
AcAlPtN,31.61,31.0036,-0.6065
PmGa2Pd5Pt,26.412,23.3835,-3.0284
YbGe2Os,17.5842,20.7849,3.2007
GdAl2Ga,10.4816,12.699,2.2173
SrYHg2,13.3564,13.0504,-0.306
Cs2SiSn2,20.7816,19.3386,-1.443
La2AgBi,46.7673,37.9312,-8.8361
Hg3WC,22.2668,17.8763,-4.3905
Tm4SiSb,24.5611,24.0795,-0.4816
TmZnCoRh,29.9247,22.856,-7.0687
Rb3CaTe,10.9167,10.2857,-0.631
PrNdGa2Pd5,16.0612,16.3269,0.2656
TbPr(ScS2)2,40.0785,34.3981,-5.6804
TmSi3NiIr,13.9841,13.3008,-0.6833
Y(HgAu)2,25.8823,24.7309,-1.1513
RbCaTeI,16.5633,17.717,1.1536
LiCaDy2,15.4335,17.5305,2.097
Y2TiHg,30.1981,26.3471,-3.851
ThZrNb6,126.8562,105.6843,-21.1719
ThZrNb6,126.8249,105.6843,-21.1406
GaCu,0.0,1.4096,1.4096
Cd2Sb2Pb,33.5869,30.7857,-2.8012
PrAsAu,14.905,16.4528,1.5478
PrYHgIr,21.7804,21.1626,-0.6177
Sr3CePt3,42.0091,33.9839,-8.0252
As2PbW,30.3641,30.5053,0.1412
YHgB3,41.8541,34.3826,-7.4715
TaSbTe2Mo,39.0799,34.672,-4.4079
CeGa2PdAu5,35.0035,34.8343,-0.1692
SmNiAs3,2.5006,4.314,1.8133
YNbHg3,39.6783,31.1808,-8.4976
YHgMo,9.2904,6.0708,-3.2196
PmPrYHg,17.5844,15.9164,-1.668
CeGa2PdPt5,58.0738,42.1726,-15.9012
Zr4Nb3,116.9439,97.6311,-19.3128
LaTa2Cu,27.6569,26.5888,-1.0681
CaSm(YHg2)2,12.6612,10.5773,-2.0839
AcAlPtBr,36.3756,33.9819,-2.3937
As2Pb,20.1553,22.9051,2.7498
Na2SrTaIn,31.4712,24.6603,-6.8109
NaSr2InMo,17.8969,17.6506,-0.2462
Ce3(GaSi)2,16.7249,16.4785,-0.2464
YHgAs3,16.5579,14.4699,-2.088
CaSm2YHg4,9.6765,9.609,-0.0675
SmGa2PdPt5,58.1285,42.2427,-15.8858
Ce2(AlGa2)3,9.7287,11.3065,1.5778
LaIn4Fe,19.2726,16.5401,-2.7325
CaSm(YHg2)2,15.7944,10.5773,-5.2171
TaNi2Pb,25.8433,29.0278,3.1845
YHg2Pb,25.3477,21.6817,-3.6659
NaBe4(AsO4)3,3.8375,3.009,-0.8285
MgTlAg2F6,13.0066,12.478,-0.5286
Y2NiHg,62.9799,53.7377,-9.2421
Pr2Nd3ScS6,35.4246,28.7692,-6.6555
CaPm3Y2,16.6682,16.8847,0.2164
PN,34.2423,28.9918,-5.2505
PrDyGa2Pt5,54.1728,39.1324,-15.0404
PC3N,52.8457,37.2565,-15.5892
P3N,19.005,15.5387,-3.4663
Pu2Mn3Ru,76.349,65.5981,-10.751
BaTc4P,65.6304,54.0931,-11.5373
SrSiC2,50.1427,33.8314,-16.3112
Tc4AgP,68.4226,56.4593,-11.9633
Tb(YHo6)2,21.6573,24.0531,2.3958
Zr4Nb3,116.9328,97.6311,-19.3017
Y(ErTm6)2,24.9289,27.3449,2.416
RbPr(AsAu)2,38.3926,33.9511,-4.4416
Sm12Y2Er,19.1889,21.5948,2.4059
La2YTm12,27.8982,27.7175,-0.1806
KBiPd4,22.8781,24.4254,1.5473
Ce(SmY6)2,10.1239,13.0682,2.9443
SiCN,34.2291,15.3435,-18.8856
RbCdIn3,16.0228,16.7114,0.6886
VSiIr,61.7547,52.3834,-9.3713
SmY(CuH4)2,10.66,9.7873,-0.8727
Pr2(SmBi)3,22.7277,25.5035,2.7758
ReSi3Sb,26.4702,20.8115,-5.6587
YTiSnH6,12.6208,9.7815,-2.8393
ZnN,23.7876,21.2049,-2.5827
CoCN2,85.0252,73.2332,-11.792
SrBeAg,21.5704,14.3476,-7.2227
Na2Li2SbS4,34.9435,25.9461,-8.9973
ReSi2Sb,29.2879,24.4468,-4.8411
Cs2Zn2Cd,15.8798,16.4303,0.5505
CoCN3,69.4458,57.6896,-11.7562
SmSnAs2Rh5,33.9133,26.4413,-7.472
SrBeAg2,24.1905,16.4688,-7.7217
Re2SiSb,35.6385,34.2797,-1.3588
KSr3W,27.209,20.9695,-6.2395
ReSi2Sb,29.4087,24.4468,-4.9619
Ba2AlRu,14.566,12.6008,-1.9652
FeNi,11.7492,7.666,-4.0831
Ca2BiBr2,16.1062,17.4951,1.389
Rb2CaN2,15.8934,14.3638,-1.5296
Ca2LaCd2,17.3717,16.0918,-1.2799
Ca2TeBr2,13.1969,14.0017,0.8048
YBe2CuH8,6.7601,5.8598,-0.9002
CsNaBeO2,3.5903,6.7164,3.1261
Ho2Os,11.3512,20.1868,8.8356
ReN2,88.8253,81.8708,-6.9545
Ta2Si,19.1428,26.9737,7.8309
NpIn7,26.1309,27.2525,1.1216
CsGeN2,3.8809,6.3053,2.4244
Hf(MoRh)2,45.0448,35.5804,-9.4644
Ba2GaGe3Au4,22.9442,23.3147,0.3705
Hf2MoRh,87.4097,64.0897,-23.32
Ta3GeN,26.4092,28.6425,2.2333
Al2AsBr,19.3647,15.5003,-3.8644
Cu2Ni3Pt4,43.3914,33.1744,-10.217
NaFeBi2Mo,38.4968,35.8555,-2.6413
Sr2OsPb,30.619,33.6402,3.0211
Ca2Cu2Rh,17.3486,12.5858,-4.7628
Sr2CaI6,8.1839,10.5855,2.4016
TaSiTc4,70.6318,60.072,-10.5599
Li3In3Bi2,22.8696,21.8238,-1.0458
SrPm2Os,26.2603,29.5947,3.3344
YNb2FeN4,50.4785,43.3599,-7.1187
Hf4MnTl,112.26,81.8538,-30.4063
K2IrPt,39.8489,33.3183,-6.5306
Cu4NiPt,16.4438,14.3584,-2.0854
ReSbTe,42.7272,41.0497,-1.6776
MnFe4Ir,31.8476,29.0228,-2.8248
Nd7Y12Er,18.6358,19.7958,1.16
PrErGa2Pt5,54.4023,39.3609,-15.0414
Cu3NiPt6,56.4398,40.7781,-15.6618
BaGe(IrO4)2,13.6063,12.7792,-0.8271
Cs12Br3O5,7.9227,9.1096,1.1869
Pr3Al3HPd2,4.1339,4.6823,0.5484
Ca2MnInTc,45.6867,37.135,-8.5517
NaTaBe2Zn,22.683,17.5099,-5.1731
Mn2InTc,78.0346,62.674,-15.3605
MnInTc2,76.4294,63.6006,-12.8288
AlAsBr2,21.672,17.9279,-3.7442
LiSc2Ag,10.7379,10.0457,-0.6922
Th4MnIn,56.8675,57.3674,0.4999
Cs4Ag2N,23.6838,21.3163,-2.3675
HfTaMo4,40.0846,37.139,-2.9456
FeRuAu2,45.7549,41.164,-4.5909
HfTa4Mo,50.9887,48.5148,-2.4739
SrCuSb2,22.9869,19.9051,-3.0818
Cs2PbBr6O,20.2041,18.9201,-1.284
Ca(ZnCd)2,12.7656,12.6694,-0.0961
Sr4PbSe5,33.9128,30.5408,-3.372
Gd3In5H12,0.0,0.0,0.0
Sc2ReSb2,39.6425,30.0063,-9.6362
SrTa4Al,33.1606,31.3639,-1.7967
Cs12Sr3Cl5,15.9079,15.5031,-0.4048
Y(Ti4V)3,33.2724,27.3649,-5.9074
NaPtI2,36.8429,29.936,-6.9069
NaPr2As4Pd3,10.0756,11.2443,1.1687
ScReSb,59.2594,46.162,-13.0974
La4CePu3Se8,50.286,42.6661,-7.6199
YHf(NbN2)2,67.9898,55.0985,-12.8913
TlCdTe2,38.6779,38.8002,0.1223
Ag2SbRu,27.619,24.129,-3.4901
Ta2Si,19.701,26.9737,7.2727
Rb2PmS3,31.8791,24.484,-7.3951
Cs2CrSbBr6,24.7201,22.7272,-1.9929
YTi4Nb3,57.8644,47.698,-10.1664
Si2SnPt,31.6427,21.2977,-10.3449
KCa2Y,14.1795,11.561,-2.6186
AlAsIBr2,21.776,18.1106,-3.6654
AlAsBr,25.7545,19.8613,-5.8932
PrAgSn,19.1776,16.5689,-2.6088
HfNiS2,58.1886,43.1579,-15.0306
Sc2MoBr,19.5556,18.6029,-0.9526
Rb2BaNp2Se7,38.9026,34.182,-4.7206
NdZr2Nb9,124.8341,102.1979,-22.6362
Zr2TlGa,63.8161,57.0936,-6.7225
Zr8TlGa2,77.5303,64.6083,-12.922
CsNp(BO3)2,3.3826,4.4019,1.0193
Y2(Ti2Nb)3,56.6602,45.8394,-10.8209
SrTaAu2,44.0638,39.8975,-4.1663
Sr(H2N)2,0.0,0.0,0.0
Ta3CuI,31.0903,31.9142,0.824
Na2(LiIn)3,15.4074,13.0163,-2.391
Na2(LiHg)3,9.4818,7.5202,-1.9616
YTi6Nb,32.018,28.7323,-3.2858
ScCuIr,32.3127,32.8444,0.5317
InH6(CO3)3,0.0,0.0,0.0
MoPd4Rh,24.9355,22.4771,-2.4584
MnV2Zn,91.1821,71.8124,-19.3697
Fe4NiP,27.4466,21.8125,-5.6341
Mn(CrFe)2,32.8322,24.0055,-8.8267
MnVZn2,60.8776,48.5617,-12.3158
Al2AgBi,23.2882,22.6403,-0.6479
MoOsRu4,22.4986,24.6702,2.1717
NaSrInP2,13.2743,13.2717,-0.0026
AlAs2Br,18.0915,14.6351,-3.4564
CaPmSc,16.3401,15.0029,-1.3372
Pm(ZnPt2)4,58.7804,42.6287,-16.1517
MgTaTl,31.5644,33.089,1.5246
Ta4MoRu,30.4178,34.9073,4.4895
LiZrRh4,48.7973,36.6945,-12.1027
Rb2PN,14.2997,12.7332,-1.5665
Rb2Ge2N,10.1212,9.8066,-0.3146
Sr2AgBr,18.6608,16.0037,-2.657
ZnTc2Br,52.0039,43.938,-8.0659
RbP3N,21.9627,15.7331,-6.2296
AlAs2Br,21.0107,14.6351,-6.3756
Sr3La4O9,20.7616,20.5275,-0.2341
Cs2SiN,17.5275,15.8999,-1.6276
OsRu3O,23.8994,23.8556,-0.0439
Ca3Y(MnN2)4,33.2821,27.6561,-5.626
Tl2IrPbBr,47.547,45.299,-2.248
RbSnN3,21.383,17.8338,-3.5491
Hf4TcMo,113.6578,84.1313,-29.5265
Pm3Fe5S12,18.5075,10.9656,-7.542
BaGe2PbAu5,33.94,34.8854,0.9454
GaTc2N,48.9972,42.2306,-6.7666
Ta4TcMo,42.2214,44.4156,2.1942
GaTcN,11.826,24.7385,12.9125
Sb2AsOs,30.3645,28.5636,-1.8009
ReTe4Mo,39.2342,37.687,-1.5471
Fe3Ni4,41.6258,30.4959,-11.1299
Ca(NdDy)2,21.861,23.988,2.1271
GaPPb,32.5151,30.3925,-2.1225
Pr4Bi2Ru,32.7762,31.1966,-1.5796
SrGa3Tc,26.5805,23.9286,-2.652
Tb3YTh2N6,26.7465,27.1201,0.3736
Zr3Nb,91.6749,77.8078,-13.8672
YNi3H8,14.8865,13.8701,-1.0164
Ag2SnBr4,18.0672,16.6343,-1.4328
ReMoRu4,22.0152,24.4349,2.4196
FeCuSiIr,34.8191,30.9976,-3.8215
AgPbBr2,33.8632,28.7794,-5.0838
ErTmSe2,37.4355,34.8703,-2.5652
Y2AgH8,5.2867,5.7656,0.4789
CdSn2GeW,23.3259,24.3438,1.0178
Li4InAs,5.9733,6.3598,0.3865
Ag2PbBr,39.1899,31.5062,-7.6837
AgPb2Br,44.2889,38.9044,-5.3845
LaAsPb2,41.2271,38.52,-2.7072
CuGeAu2,24.1468,27.837,3.6903
Ce3TlRu,22.014,25.2675,3.2535
CeHf2Sc,79.4842,60.3969,-19.0873
FeNiP3,22.1158,17.0941,-5.0217
Ce2HfSc,49.8813,41.7453,-8.136
ErTmIrAu,36.8158,40.3847,3.5689
FeNi2,26.8973,23.0363,-3.861
Tm2GeRu3,19.3306,22.6463,3.3157
Ag12I3Br5,18.281,13.637,-4.644
Sc2Ga2Br,3.1709,5.319,2.1481
YSi(H4Os)2,14.3649,13.6767,-0.6882
Rb3Mg2Bi3,19.1594,20.977,1.8176
AlGa3N,8.3761,6.9168,-1.4593
Y(TmTe2)3,29.392,30.5422,1.1502
Y(Zn3Au)2,17.7374,18.1822,0.4448
LiCrPb3,33.8858,34.1322,0.2463
PuAgBiH,32.9027,33.6052,0.7024
PtRhN,39.8638,33.3983,-6.4655
SrFeCl2,17.8181,16.2226,-1.5955
Sr2CaAg,17.6063,14.9744,-2.6319
Ca(SmTm)2,23.3174,25.449,2.1316
YTi4Nb,33.1433,28.0547,-5.0886
CuTc3Ni,59.8818,49.9245,-9.9573
BaTaAg2,25.432,23.3215,-2.1105
ReHgS2,39.0924,32.272,-6.8204
HfPS2I,58.2094,45.0749,-13.1345
ScTaAg2,80.4166,64.6479,-15.7687
Tl2AsW,39.2853,41.0303,1.745
LaTm2Ag,36.0707,31.7802,-4.2904
AlHg2Sb,12.2131,10.4271,-1.786
CsK2V2O7,24.5575,21.6481,-2.9095
Fe3Ni4,41.505,30.4959,-11.0091
Pr2PuBi3,36.979,38.8487,1.8697
LiTm3(ScS3)2,41.4509,34.767,-6.6839
FeNi,0.0,7.666,7.666
Sr2NbTe,49.2157,44.372,-4.8437
NaMn2VMo,76.6158,63.4073,-13.2085
Na2ZnSi4Pt3,38.2803,26.3479,-11.9324
Fe2Ni13,17.6457,14.5244,-3.1212
Y2U(Ti2Nb)3,57.7592,48.4055,-9.3537
AlInTc4,66.7596,55.7007,-11.0589
LiLa,19.5168,15.4734,-4.0434
YMnNi,99.9867,83.7833,-16.2034
Y6In3Bi,15.8456,16.8528,1.0071
Nb5(VH4)3,36.5685,27.9871,-8.5815
Ru2WSe,41.8074,33.5987,-8.2087
Si2AsN,14.728,10.8188,-3.9092
Rb2NaGdBr6,10.9423,12.0176,1.0753
La2Tb2Pr7,11.4901,9.3371,-2.153
Ca3NbI,36.5365,31.4829,-5.0536
Ba3Nd(GeO4)2,16.3447,13.8835,-2.4613
La2Pr7Dy2,11.6342,9.4832,-2.151
SrAs2Pb,26.2353,23.9952,-2.2401
Ba2CaSm,7.696,9.4804,1.7845
LiOsSe4,40.2307,34.3092,-5.9215
Co(RhPb)2,38.3492,32.7703,-5.5788
PrSm3Ru,22.409,23.9733,1.5642
AgN,0.0,0.0,0.0
Tm3PdN,28.6417,27.6251,-1.0166
Re3RuRh,35.3851,35.8802,0.4951
Mn2VSe,86.8565,68.006,-18.8505
Nd3RuRh,29.8649,27.6216,-2.2433
Na2LiCuMo,24.802,17.3415,-7.4605
SrTeC3,49.5067,36.4048,-13.1019
IN,0.0,0.0,0.0
ScAgSb3,36.1038,27.8022,-8.3017
Cu2RhN,17.048,14.8826,-2.1654
MnSnPS,34.1876,30.5908,-3.5968
RbLaCuMo2,29.0005,20.9526,-8.0479
NdThAs2,26.3732,30.4953,4.1222
Nb2CrRu,76.8976,65.9468,-10.9509
SiAsIr2,38.3371,37.1757,-1.1613
RhIO2,36.2405,28.8935,-7.347
NaFeNiB2,28.466,20.871,-7.595
SrBeCl2,14.2038,13.0378,-1.166
Ti7Al,5.5086,7.0585,1.5499
Ca2SnAs3Pt4,41.1917,30.8935,-10.2982
PrPdPb,21.1818,23.9494,2.7676
MoAsPb2,33.3234,34.6798,1.3564
AlCrCl2,9.2148,8.4834,-0.7314
Sm3SnRu,16.0172,20.729,4.7119
K(AlSb)2,18.1856,15.6588,-2.5268
Pu2PbBr,58.9828,56.2921,-2.6907
Th3TlRu,31.9584,41.5319,9.5735
YU4V3N8,48.3116,43.9086,-4.403
LiLa4Te,41.622,30.1156,-11.5064
Ho3TeRu,22.0467,26.2869,4.2401
MnBePS2,44.6768,36.3886,-8.2882
CeSmPuSe3,35.0534,33.8592,-1.1943
YTh(VN2)2,45.9446,40.5071,-5.4376
TeS2I,44.9032,37.1674,-7.7358
KAl2Sb,15.8214,13.8822,-1.9392
RbBaNa2Ag,16.5398,12.7576,-3.7823
YAl(MoC2)2,38.5938,27.5147,-11.0791
La3Np,56.6349,44.5042,-12.1306
Sr2LaRe,38.8848,29.121,-9.7638
Cs3(SbPt2)2,57.518,43.1439,-14.3741
AlTcRu4,27.8998,26.9362,-0.9637
NpNb5,129.8252,109.4217,-20.4036
Sm3PuSe4,40.7268,37.125,-3.6017
NaGe2MoOs,23.5398,21.337,-2.2028
La2NiRh2,34.5175,24.0932,-10.4242
Ta4BeAu,34.9246,36.1717,1.2471
SrTlBr2,22.8351,22.606,-0.2291
LiZrHgI6,26.5565,24.188,-2.3685
HoReNi,28.8864,19.7715,-9.115
SrGaPS2,33.9694,25.8666,-8.1028
SrTlBr,27.1951,25.7921,-1.403
Ac2Ga2Cl,29.0007,30.6545,1.6538
Na2ZrBeTe,38.6988,32.4012,-6.2976
Ca2ThIr2,43.9648,36.2812,-7.6836
Ce(InSn)2,16.6704,19.049,2.3786
BeInTc2,52.2723,45.0539,-7.2184
GaCuGe,10.3869,10.1269,-0.26
Ta4BeW,33.544,35.3428,1.7988
NaZn2FeGe,16.3382,15.1366,-1.2015
YPu2(NbN2)3,56.8778,50.3449,-6.533
TaBeIr4,37.159,39.4267,2.2677
BaGeO2,13.2409,11.7157,-1.5252
Sr(Ti2Pb)2,21.6713,22.7243,1.053
Ce4CdN,13.4766,16.4895,3.0128
La2PrBi,37.8007,30.4205,-7.3802
YU(TaN2)2,32.4378,32.4475,0.0097
CaSm6Y3Er2,22.9807,23.2818,0.3011
SrLaGe2,20.6604,17.7543,-2.906
Na2ScTc,70.8166,57.6878,-13.1288
CdP2SBr,20.8554,20.7477,-0.1077
YTa2AlN4,24.4042,24.107,-0.2972
CaUS3,26.7262,23.0281,-3.698
NaScGe4,19.1864,15.2125,-3.9738
NbAlO4,13.6343,14.4694,0.835
La2Ce(NdSe2)3,39.0644,32.6694,-6.395
PuVH3,19.5102,16.611,-2.8992
Ac4MgPd,33.55,37.5814,4.0314
Cd2InSb2,27.2002,24.5004,-2.6998
SrTaAs2,25.8301,21.6475,-4.1827
Tb2YErSc,15.6866,18.5957,2.9092
SrGa3N,9.921,10.1373,0.2162
Sb3AsW,38.8806,32.0328,-6.8479
NaIn2GaRh,25.4299,21.6024,-3.8275
BiPtRh2,60.5195,47.1907,-13.3288
Re2PbW,43.5789,48.0576,4.4786
NaSr2CuNi,16.3679,14.13,-2.2379
Sr2(AcPb)3,46.929,48.5007,1.5716
AsRhPb,37.0861,34.6634,-2.4227
LiGeB,0.0,1.6305,1.6305
Ba2FeRu,17.6369,12.7892,-4.8477
PmY(ZrNb2)2,100.5539,83.9903,-16.5637
YZr5Nb6,113.0803,93.2585,-19.8217
CaAcSb,35.2761,34.2944,-0.9817
HfSbRu2,54.7637,44.0994,-10.6643
PIr2Pt,51.8493,43.995,-7.8543
Ca2La2Sm,27.7177,22.7673,-4.9504
Zr2SbAs,62.3646,51.8269,-10.5377
Ga(NiH4)2,2.0873,2.778,0.6907
TbEr2Hg5,10.056,11.2137,1.1577
MgPaZn4,17.0671,18.1912,1.1241
SrLa2Sm,35.6086,27.8984,-7.7102
Zr2CdSi,57.3743,48.093,-9.2813
Zr4Nb15Ag,127.5251,104.5393,-22.9857
Na2Y(NbN2)3,49.286,42.1437,-7.1424
LiHfRu3,38.9931,32.8146,-6.1785
Ca2LaPr2,11.6816,9.0794,-2.6022
Ca2LaPt2,42.1102,29.2743,-12.8359
Ca2LaTb2,19.7571,19.2273,-0.5298
SmYNb14,126.496,103.66,-22.836
SrScMo2,22.2248,22.7699,0.545
Ce3Y(VN2)4,43.8475,37.2218,-6.6257
Ba2HfZr,57.2422,44.1991,-13.0431
Ca2Nd2Th,25.129,28.0658,2.9369
Ta2AlSb,23.122,25.8549,2.7328
AcEuDy2,36.9861,38.818,1.8319
NaThTlSn,40.415,41.2133,0.7983
MgZr4Tc,81.2974,68.4944,-12.803
YZr6Nb5,109.4461,90.5546,-18.8915
Ca2AcI,23.8649,25.6267,1.7619
ReP2PtS,56.219,44.4732,-11.7459
Sr3N,6.5947,8.7826,2.1879
SmGeIr,12.613,17.238,4.6249
TlPb3Se,51.9197,50.6762,-1.2436
Pm3Te3S,29.9476,29.177,-0.7706
Cu3SiGe,10.1891,9.6387,-0.5504
Tb2PuSe3,21.0962,23.2616,2.1655
K2TcAs,28.2787,25.869,-2.4097
YTc5Mo4,67.8545,59.1511,-8.7034
Ta2AlSb,30.4552,25.8549,-4.6003
Ca2Ni2Ir,18.8324,14.5088,-4.3237
Sr(HfZr)2,92.3675,71.4636,-20.9039
Y2ZrNb6,99.7762,82.8813,-16.8949
YHg2Pb,25.4147,21.6817,-3.7329
NaLaY,30.1944,24.1799,-6.0144
NaAs2RuRh,30.3592,24.375,-5.9841
Ca2Pr2Sm,6.3501,7.7221,1.372
PdS3Cl,34.3772,26.1898,-8.1875
V(SiNi)2,27.1881,21.9496,-5.2385
TmNpN,23.82,30.89,7.07
SrSiTc,56.7142,42.4989,-14.2154
ScCuI2,26.6326,22.9204,-3.7122
Mn4CoOs,74.818,60.0038,-14.8143
CeNd2SmS4,32.152,27.4665,-4.6854
TaSi3,13.3977,10.5094,-2.8883
CaTaAl2,12.2557,15.1696,2.9139