Formula,E_hull_DFT (eV/atom),E_hull_ML (eV/atom),Delta (ML - DFT)
Rb(Bi2Te3)2,42.8446,41.7728,-1.0718
Na(YTe)2,21.4941,21.5375,0.0434
BaZnCoF6,3.4557,2.6515,-0.8042
RbBiTe2,34.9193,34.0209,-0.8984
YAl4Si,23.5631,19.4329,-4.1302
Sc2NiRhAu,23.2715,21.1599,-2.1116
SiSO2,10.8659,17.0022,6.1363
MnAg6,42.0611,32.9452,-9.116
Sc(AgSn)2,28.2333,23.3428,-4.8905
Zn(CoGe)2,8.1189,6.7891,-1.3298
CrNi2Os,26.3936,27.2188,0.8251
Al4AgTe,14.4841,13.7724,-0.7117
Co2CuIr,31.4776,28.4717,-3.006
NaScBeTe3,23.445,21.0934,-2.3516
Y2ZrHg,45.0267,41.9352,-3.0915
ScAgSn2,27.547,23.6038,-3.9433
NaScS2,43.9268,36.2134,-7.7134
NaNiS3,40.2308,29.8529,-10.3778
AcNdPtRh,56.1431,48.4519,-7.6912
LaCo2Cu,34.1139,27.7655,-6.3484
NaWS3,46.2467,36.1086,-10.1381
IrWSe4,45.4383,40.513,-4.9253
Er2PaCo2,27.2997,30.5889,3.2892
TmRu3,19.86,23.2897,3.4297
AlCo2Tc,39.3033,30.74,-8.5633
Cs2SrN,13.3503,15.6774,2.3271
Mn5Cr2,73.6163,59.5622,-14.0541
Tm3(ScNi)2,16.668,19.0575,2.3895
PtWSe4,53.2465,43.4736,-9.7729
InGa2TcN,27.1851,24.5468,-2.6383
Be3(In3N4)2,23.8427,20.0671,-3.7756
Nb2ZnCo2,59.2556,47.2854,-11.9702
GaTcN,26.667,24.0551,-2.6119
ErCo6,10.4535,11.6319,1.1784
Ga2TcIr,38.0433,36.0464,-1.9969
Ga2CuTc2,37.18,32.1925,-4.9875
AcTbPtAu,56.1035,52.1011,-4.0024
Pr3(DySc)2,7.2633,9.2766,2.0133
YZrHg4,24.4493,20.9457,-3.5036
VNiOs3,53.8281,49.9453,-3.8828
TlCdInSn,27.6877,28.9797,1.292
Na2Tl2Pt,45.0637,39.2775,-5.7862
LiMg14Cu,3.9225,3.7173,-0.2053
Y11Ho9Er4,21.9033,23.3289,1.4256
Ga3TcNi,25.4922,23.05,-2.4422
GaTcNi2C,34.7188,28.5668,-6.152
PrYHgBi,26.6424,24.2889,-2.3535
Tl2CdInIr,36.9191,38.1192,1.2001
Y6ErIn,17.4149,18.0836,0.6687
PmScBe2,13.3346,12.1324,-1.2022
Eu2BeN,36.9444,33.0057,-3.9387
Pm2SbP,23.1672,24.5416,1.3743
SrYHg2,15.5617,14.1271,-1.4346
CrGaTc,21.3175,22.7682,1.4508
Eu(BeN)2,32.9949,27.7815,-5.2134
YTc2Hg,78.8374,67.0786,-11.7588
ScPa2Nb,70.5571,65.4165,-5.1405
Zr2Ga4Tc,46.2246,40.4111,-5.8134
Ac2PuSn4Pt3,54.5412,48.0358,-6.5054
Be2GaTcBr,24.1234,20.5768,-3.5466
Tb2Pr3Sc2,7.3604,9.0498,1.6894
Ga2ReTc2,40.9535,38.2303,-2.7231
Ac2Be3SnPt4,51.3145,40.9581,-10.3564
Tm2ZrNb9,119.7182,95.9332,-23.7851
Ac2Be(ZnPt2)2,57.7089,45.0768,-12.6321
Ta2TiNi,16.4014,22.7335,6.3322
LuRe6,40.1772,43.3825,3.2053
Ac2NdZn3Pt4,52.6578,43.3918,-9.266
Ac2Pu(PtI)2,59.868,53.4989,-6.3691
Y2HfHg,61.1035,46.2003,-14.9032
AcPm(AsPt)2,46.8265,40.0405,-6.786
In2ReP,41.5291,37.3612,-4.1678
LiMg6Cu,5.2836,4.4098,-0.8738
Pr2U(H4Rh)3,11.2262,9.7181,-1.508
Co2HgGeSe,14.5521,13.3382,-1.2139
Tl3RuBr,39.8909,38.8209,-1.07
TlAgPt2,65.3622,51.5549,-13.8073
InRe2P,46.6824,42.2734,-4.409
BaAcCdPt,42.8359,38.3034,-4.5324
YThHg4,18.9514,18.6232,-0.3282
Li2MnMo,29.1645,25.9772,-3.1872
Y3HgSb,32.0076,26.9787,-5.0289
BaGaTc2C,54.4657,41.7149,-12.7508
TePd,16.5907,19.3901,2.7994
Ac3Si2BiPt9,71.5732,55.1982,-16.375
CoSiBr2,17.6277,13.2417,-4.386
LiMg6Zr,14.3504,13.0627,-1.2877
MoPt7,80.081,58.4589,-21.6221
TbNdGa2Pt5,56.3969,43.0127,-13.3842
EuBe2Rh,19.007,17.8473,-1.1596
Y2ThHg,41.7591,37.948,-3.8111
Nd4RhSe2Br,30.5945,27.3885,-3.206
YHg2Pb,22.6106,22.6763,0.0657
La2TaCu2,26.6338,21.883,-4.7507
TbYHg5,10.573,9.9046,-0.6684
Tl(AgPt)2,58.7246,46.2192,-12.5054
Y2V2Hg,65.8597,50.8516,-15.0081
GaTcIr,41.1473,40.6797,-0.4676
Zr2Ga4Tc,45.8142,40.4111,-5.4031
GaReTc,38.3923,44.7014,6.3092
CaY4Si,26.3701,22.7228,-3.6473
AcNd(AsPt)2,46.8042,40.0177,-6.7865
Rb(NaPb)2,31.1624,29.8821,-1.2802
Tl2Zn2S3,30.448,25.5724,-4.8757
LiZr2Br,61.1945,52.8214,-8.3731
CsZnPO4,4.7989,2.8722,-1.9267
NaPtS2,56.4255,42.1135,-14.312
BaThPb,25.7832,31.1391,5.3559
GdY2Hg,32.4903,28.8419,-3.6484
Ga2TcNi,28.7582,26.6372,-2.121
SiSbTe2As,39.7758,34.0652,-5.7105
NaAuS2,46.4977,37.9027,-8.595
YLu2Hg,29.2545,28.7622,-0.4924
TlGa2SiTc,35.1079,31.2574,-3.8505
Ce2NiSb4Pd3,30.7397,27.1033,-3.6364
KCuAg2F6,8.3474,7.7252,-0.6221
TlGa2TcGe,33.9646,31.6036,-2.361
GaTcPAu2,47.4021,42.0192,-5.383
MnCr3Te4,36.7537,32.0137,-4.74
ZrTeSe4,54.8916,46.1199,-8.7717
Na2Si2Pd,15.9164,11.7624,-4.1541
LaCeGa2Pd5,21.8294,20.3756,-1.4538
RbNa7,21.8102,17.8092,-4.001
KNbSb2Te,56.9827,47.031,-9.9518
ThTe,53.0091,54.7701,1.7611
RuPb3Br,42.9803,42.3719,-0.6083
AcBiPtBr,49.587,47.8625,-1.7244
K2HgBr6,7.3481,7.6093,0.2612
CdGa2Bi2Au7,39.6275,40.5705,0.943
Ba2CrCoO6,3.7864,3.5275,-0.2589
BeAsI2,21.559,22.5398,0.9809
Ce4PrY,18.8212,20.0776,1.2564
Na(AuBr4)2,18.9668,19.0365,0.0696
YHfHg3,39.1679,28.7022,-10.4658
Ac2ZrAs3Pt4,60.6433,49.5097,-11.1336
Sc3(CdGa)2,9.7478,11.7867,2.0388
Zn(SnC)2,35.4288,27.3876,-8.0412
Ga3SbW,23.3361,22.2954,-1.0407
In2FeSb2,29.8647,25.3087,-4.556
Ac3Pr2Nd7,29.9267,31.3802,1.4536
GdGaHg,12.1145,14.1842,2.0697
GaPbAu2,38.9102,40.3672,1.457
Nd4PtSeBr2,31.7971,28.4893,-3.3079
YAlHg,25.395,20.2843,-5.1107
Sr5AlZn4,10.0372,11.1768,1.1396
NaHoS2,34.7018,27.306,-7.3958
TlP2Br,13.7456,15.2829,1.5372
LaPrYHg,24.2804,19.8263,-4.4541
Zr2Sc3In2,37.3027,33.1184,-4.1844
Ag3As4,19.5836,17.1189,-2.4647
YHgB,61.3185,53.0092,-8.3093
Y(HgGe)2,10.2771,9.5659,-0.7112
BaMnAg2,40.7601,32.9099,-7.8502
Ba2Tm(CoO3)2,4.4212,4.7008,0.2796
SbPbW3,44.9704,45.1664,0.196
Ba2Pm(CoO3)2,3.9648,4.0312,0.0664
Ba3Ce(CoO4)2,3.2789,2.9292,-0.3497
Ba2Co2PbO6,6.9854,6.3502,-0.6352
ZnCrCoRh,24.8225,17.1378,-7.6847
Yb(GeIr)2,21.0387,25.361,4.3223
Sm7DyY12,18.6717,19.725,1.0533
PmGa2PdAu5,34.9577,34.6541,-0.3037
CsNd(BO3)2,5.3524,5.4508,0.0984
AcAlPtN,31.61,31.4831,-0.1269
PmGa2Pd5Pt,26.412,23.4202,-2.9917
YbGe2Os,17.5842,20.6589,3.0747
GdAl2Ga,10.4816,12.7682,2.2865
SrYHg2,13.3564,14.1271,0.7707
Cs2SiSn2,20.7816,19.3381,-1.4435
La2AgBi,46.7673,39.7891,-6.9782
Hg3WC,22.2668,17.6417,-4.6251
Tm4SiSb,24.5611,24.5192,-0.042
TmZnCoRh,29.9247,23.1461,-6.7786
Rb3CaTe,10.9167,9.9819,-0.9348
PrNdGa2Pd5,16.0612,16.2427,0.1815
TbPr(ScS2)2,40.0785,34.0567,-6.0218
TmSi3NiIr,13.9841,13.5376,-0.4465
Y(HgAu)2,25.8823,25.3827,-0.4995
RbCaTeI,16.5633,17.4106,0.8472
LiCaDy2,15.4335,17.6682,2.2347
Y2TiHg,30.1981,27.5425,-2.6556
ThZrNb6,126.8562,102.6752,-24.1809
ThZrNb6,126.8249,102.6752,-24.1496
GaCu,0.0,1.6342,1.6342
Cd2Sb2Pb,33.5869,31.8531,-1.7338
PrAsAu,14.905,16.5277,1.6227
PrYHgIr,21.7804,22.0601,0.2797
Sr3CePt3,42.0091,34.6186,-7.3905
As2PbW,30.3641,30.5114,0.1474
YHgB3,41.8541,35.4354,-6.4187
TaSbTe2Mo,39.0799,35.2231,-3.8568
CeGa2PdAu5,35.0035,34.6604,-0.3431
SmNiAs3,2.5006,4.2251,1.7245
YNbHg3,39.6783,31.2623,-8.416
YHgMo,9.2904,6.9278,-2.3626
PmPrYHg,17.5844,16.7929,-0.7916
CeGa2PdPt5,58.0738,43.1046,-14.9693
Zr4Nb3,116.9439,96.544,-20.3999
LaTa2Cu,27.6569,27.2528,-0.4041
CaSm(YHg2)2,12.6612,11.2165,-1.4447
AcAlPtBr,36.3756,33.7132,-2.6624
As2Pb,20.1553,22.1541,1.9988
Na2SrTaIn,31.4712,25.393,-6.0781
NaSr2InMo,17.8969,17.8601,-0.0368
Ce3(GaSi)2,16.7249,16.4128,-0.3121
YHgAs3,16.5579,15.2546,-1.3033
CaSm2YHg4,9.6765,9.6978,0.0213
SmGa2PdPt5,58.1285,43.2363,-14.8922
Ce2(AlGa2)3,9.7287,11.1629,1.4343
LaIn4Fe,19.2726,16.8292,-2.4434
CaSm(YHg2)2,15.7944,11.2165,-4.5778
TaNi2Pb,25.8433,29.0177,3.1743
YHg2Pb,25.3477,22.6763,-2.6713
NaBe4(AsO4)3,3.8375,3.3175,-0.5201
MgTlAg2F6,13.0066,12.3799,-0.6267
Y2NiHg,62.9799,55.9962,-6.9837
Pr2Nd3ScS6,35.4246,28.775,-6.6496
CaPm3Y2,16.6682,16.6719,0.0037
PN,34.2423,27.5433,-6.699
PrDyGa2Pt5,54.1728,40.3029,-13.8699
PC3N,52.8457,37.0724,-15.7732
P3N,19.005,14.7577,-4.2473
Pu2Mn3Ru,76.349,67.4304,-8.9186
BaTc4P,65.6304,53.9194,-11.711
SrSiC2,50.1427,34.1142,-16.0285
Tc4AgP,68.4226,56.4017,-12.0208
Tb(YHo6)2,21.6573,23.5767,1.9194
Zr4Nb3,116.9328,96.544,-20.3888
Y(ErTm6)2,24.9289,27.004,2.0751
RbPr(AsAu)2,38.3926,34.5203,-3.8723
Sm12Y2Er,19.1889,21.0856,1.8968
La2YTm12,27.8982,27.7016,-0.1966
KBiPd4,22.8781,24.2189,1.3408
Ce(SmY6)2,10.1239,12.5416,2.4178
SiCN,34.2291,15.8844,-18.3448
RbCdIn3,16.0228,16.6219,0.599
VSiIr,61.7547,51.8982,-9.8565
SmY(CuH4)2,10.66,9.6232,-1.0368
Pr2(SmBi)3,22.7277,25.1053,2.3776
ReSi3Sb,26.4702,21.9534,-4.5168
YTiSnH6,12.6208,9.7375,-2.8833
ZnN,23.7876,21.1382,-2.6494
CoCN2,85.0252,73.9262,-11.099
SrBeAg,21.5704,15.7493,-5.821
Na2Li2SbS4,34.9435,26.2519,-8.6916
ReSi2Sb,29.2879,25.3387,-3.9491
Cs2Zn2Cd,15.8798,16.4656,0.5858
CoCN3,69.4458,58.2976,-11.1482
SmSnAs2Rh5,33.9133,26.6306,-7.2826
SrBeAg2,24.1905,17.8947,-6.2959
Re2SiSb,35.6385,35.2332,-0.4053
KSr3W,27.209,20.6997,-6.5093
ReSi2Sb,29.4087,25.3387,-4.07
Ba2AlRu,14.566,12.9592,-1.6068
FeNi,11.7492,7.8163,-3.9329
Ca2BiBr2,16.1062,17.5549,1.4487
Rb2CaN2,15.8934,14.3374,-1.556
Ca2LaCd2,17.3717,16.6772,-0.6945
Ca2TeBr2,13.1969,13.9208,0.724
YBe2CuH8,6.7601,5.8099,-0.9502
CsNaBeO2,3.5903,6.6755,3.0852
Ho2Os,11.3512,19.8034,8.4522
ReN2,88.8253,83.9198,-4.9054
Ta2Si,19.1428,26.8661,7.7234
NpIn7,26.1309,26.9979,0.8671
CsGeN2,3.8809,6.2275,2.3466
Hf(MoRh)2,45.0448,35.9688,-9.076
Ba2GaGe3Au4,22.9442,23.2209,0.2767
Hf2MoRh,87.4097,64.1963,-23.2134
Ta3GeN,26.4092,28.624,2.2148
Al2AsBr,19.3647,16.2161,-3.1486
Cu2Ni3Pt4,43.3914,34.133,-9.2585
NaFeBi2Mo,38.4968,35.5566,-2.9402
Sr2OsPb,30.619,33.5738,2.9547
Ca2Cu2Rh,17.3486,12.8717,-4.477
Sr2CaI6,8.1839,10.6626,2.4787
TaSiTc4,70.6318,59.8701,-10.7617
Li3In3Bi2,22.8696,21.7116,-1.158
SrPm2Os,26.2603,29.5862,3.3259
YNb2FeN4,50.4785,42.2649,-8.2136
Hf4MnTl,112.26,82.357,-29.903
K2IrPt,39.8489,33.5023,-6.3465
Cu4NiPt,16.4438,14.6983,-1.7456
ReSbTe,42.7272,41.9344,-0.7928
MnFe4Ir,31.8476,29.4892,-2.3584
Nd7Y12Er,18.6358,19.6569,1.0211
PrErGa2Pt5,54.4023,40.5297,-13.8727
Cu3NiPt6,56.4398,41.8902,-14.5496
BaGe(IrO4)2,13.6063,12.7207,-0.8856
Cs12Br3O5,7.9227,9.2598,1.3371
Pr3Al3HPd2,4.1339,4.6644,0.5304
Ca2MnInTc,45.6867,37.9564,-7.7303
NaTaBe2Zn,22.683,17.8256,-4.8574
Mn2InTc,78.0346,64.6769,-13.3576
MnInTc2,76.4294,64.6355,-11.794
AlAsBr2,21.672,18.6227,-3.0493
LiSc2Ag,10.7379,10.6194,-0.1184
Th4MnIn,56.8675,57.4687,0.6012
Cs4Ag2N,23.6838,21.5407,-2.1431
HfTaMo4,40.0846,37.1028,-2.9818
FeRuAu2,45.7549,40.8491,-4.9058
HfTa4Mo,50.9887,48.4652,-2.5235
SrCuSb2,22.9869,21.1377,-1.8491
Cs2PbBr6O,20.2041,19.6835,-0.5206
Ca(ZnCd)2,12.7656,12.701,-0.0646
Sr4PbSe5,33.9128,30.2427,-3.67
Sc2ReSb2,39.6425,30.896,-8.7465
SrTa4Al,33.1606,32.0639,-1.0967
Cs12Sr3Cl5,15.9079,15.5867,-0.3212
Y(Ti4V)3,33.2724,27.1865,-6.0859
NaPtI2,36.8429,30.4095,-6.4334
NaPr2As4Pd3,10.0756,11.1841,1.1086
ScReSb,59.2594,48.1572,-11.1022
La4CePu3Se8,50.286,42.9628,-7.3232
YHf(NbN2)2,67.9898,53.6492,-14.3407
TlCdTe2,38.6779,38.5903,-0.0875
Ag2SbRu,27.619,25.5366,-2.0825
Ta2Si,19.701,26.8661,7.1651
Rb2PmS3,31.8791,24.3521,-7.5271
Cs2CrSbBr6,24.7201,22.6345,-2.0855
YTi4Nb3,57.8644,46.2195,-11.6449
Si2SnPt,31.6427,22.1621,-9.4806
KCa2Y,14.1795,11.8748,-2.3047
AlAsIBr2,21.776,18.6521,-3.1238
AlAsBr,25.7545,20.8319,-4.9226
PrAgSn,19.1776,17.4087,-1.7689
HfNiS2,58.1886,41.7036,-16.4849
Sc2MoBr,19.5556,18.2448,-1.3107
Rb2BaNp2Se7,38.9026,33.6886,-5.214
NdZr2Nb9,124.8341,99.3204,-25.5137
Zr2TlGa,63.8161,57.7565,-6.0596
Zr8TlGa2,77.5303,65.6858,-11.8445
CsNp(BO3)2,3.3826,4.5204,1.1378
Y2(Ti2Nb)3,56.6602,44.6751,-11.9852
SrTaAu2,44.0638,40.447,-3.6167
Ta3CuI,31.0903,32.1362,1.0459
Na2(LiIn)3,15.4074,13.2011,-2.2063
Na2(LiHg)3,9.4818,7.8462,-1.6356
YTi6Nb,32.018,28.1426,-3.8754
ScCuIr,32.3127,32.7704,0.4577
MoPd4Rh,24.9355,22.4473,-2.4882
MnV2Zn,91.1821,71.9441,-19.238
Fe4NiP,27.4466,22.3532,-5.0934
Mn(CrFe)2,32.8322,25.2315,-7.6006
MnVZn2,60.8776,49.1838,-11.6938
Al2AgBi,23.2882,22.8802,-0.4079
MoOsRu4,22.4986,24.6059,2.1073
NaSrInP2,13.2743,12.4541,-0.8202
AlAs2Br,18.0915,15.3106,-2.7809
CaPmSc,16.3401,14.9259,-1.4142
Pm(ZnPt2)4,58.7804,43.8851,-14.8953
MgTaTl,31.5644,33.0163,1.4519
Ta4MoRu,30.4178,34.913,4.4952
LiZrRh4,48.7973,37.3094,-11.4878
Rb2PN,14.2997,11.9791,-2.3206
Rb2Ge2N,10.1212,9.3715,-0.7496
Sr2AgBr,18.6608,16.5632,-2.0975
ZnTc2Br,52.0039,43.9331,-8.0708
RbP3N,21.9627,15.3816,-6.5811
AlAs2Br,21.0107,15.3106,-5.7002
Sr3La4O9,20.7616,19.5986,-1.163
Cs2SiN,17.5275,15.9652,-1.5624
OsRu3O,23.8994,23.7336,-0.1659
Ca3Y(MnN2)4,33.2821,28.6735,-4.6086
Tl2IrPbBr,47.547,46.9056,-0.6414
RbSnN3,21.383,17.8349,-3.5481
Hf4TcMo,113.6578,83.9738,-29.684
Pm3Fe5S12,18.5075,11.183,-7.3246
BaGe2PbAu5,33.94,34.8535,0.9136
GaTc2N,48.9972,42.3243,-6.6729
Ta4TcMo,42.2214,44.4763,2.2549
GaTcN,11.826,24.0551,12.2292
Sb2AsOs,30.3645,30.1881,-0.1764
ReTe4Mo,39.2342,37.0681,-2.1661
Fe3Ni4,41.6258,30.6542,-10.9716
Ca(NdDy)2,21.861,23.8717,2.0107
GaPPb,32.5151,30.3138,-2.2013
Pr4Bi2Ru,32.7762,32.0657,-0.7105
SrGa3Tc,26.5805,23.9786,-2.602
Tb3YTh2N6,26.7465,26.7561,0.0097
Zr3Nb,91.6749,78.0137,-13.6612
YNi3H8,14.8865,13.7387,-1.1477
Ag2SnBr4,18.0672,16.9288,-1.1383
ReMoRu4,22.0152,24.3753,2.3601
FeCuSiIr,34.8191,30.9516,-3.8675
AgPbBr2,33.8632,31.004,-2.8593
ErTmSe2,37.4355,34.4941,-2.9414
Y2AgH8,5.2867,5.8475,0.5608
CdSn2GeW,23.3259,24.1248,0.7989
Li4InAs,5.9733,5.2783,-0.695
Ag2PbBr,39.1899,34.0094,-5.1805
AgPb2Br,44.2889,41.0828,-3.2061
LaAsPb2,41.2271,39.2802,-1.947
CuGeAu2,24.1468,27.831,3.6842
Ce3TlRu,22.014,24.6121,2.5981
CeHf2Sc,79.4842,60.0532,-19.4311
FeNiP3,22.1158,17.4875,-4.6283
Ce2HfSc,49.8813,41.4986,-8.3828
ErTmIrAu,36.8158,40.4098,3.5939
FeNi2,26.8973,22.8279,-4.0694
Tm2GeRu3,19.3306,22.4939,3.1633
Ag12I3Br5,18.281,14.5016,-3.7794
Sc2Ga2Br,3.1709,5.0654,1.8945
YSi(H4Os)2,14.3649,13.5918,-0.7731
Rb3Mg2Bi3,19.1594,20.7493,1.5899
AlGa3N,8.3761,7.043,-1.3331
Y(TmTe2)3,29.392,30.3018,0.9098
Y(Zn3Au)2,17.7374,18.1598,0.4224
LiCrPb3,33.8858,34.0896,0.2038
PuAgBiH,32.9027,33.5464,0.6437
PtRhN,39.8638,33.4548,-6.409
SrFeCl2,17.8181,16.3152,-1.5029
Sr2CaAg,17.6063,15.2206,-2.3857
Ca(SmTm)2,23.3174,25.3857,2.0683
YTi4Nb,33.1433,27.3486,-5.7948
CuTc3Ni,59.8818,50.1276,-9.7542
BaTaAg2,25.432,23.9984,-1.4336
ReHgS2,39.0924,32.4136,-6.6788
HfPS2I,58.2094,45.2289,-12.9805
ScTaAg2,80.4166,65.1,-15.3165
Tl2AsW,39.2853,41.0153,1.73
LaTm2Ag,36.0707,32.7916,-3.2791
AlHg2Sb,12.2131,11.1222,-1.0909
CsK2V2O7,24.5575,21.0322,-3.5253
Fe3Ni4,41.505,30.6542,-10.8508
Pr2PuBi3,36.979,38.7917,1.8127
LiTm3(ScS3)2,41.4509,34.7004,-6.7504
FeNi,0.0,7.8163,7.8163
Sr2NbTe,49.2157,43.275,-5.9408
NaMn2VMo,76.6158,64.0991,-12.5166
Na2ZnSi4Pt3,38.2803,27.3142,-10.9661
Fe2Ni13,17.6457,14.5118,-3.1339
Y2U(Ti2Nb)3,57.7592,47.3513,-10.4079
AlInTc4,66.7596,55.5325,-11.2271
LiLa,19.5168,17.0238,-2.493
YMnNi,99.9867,86.4979,-13.4888
Y6In3Bi,15.8456,16.6066,0.761
Nb5(VH4)3,36.5685,25.8382,-10.7304
Ru2WSe,41.8074,33.9057,-7.9018
Si2AsN,14.728,11.0218,-3.7061
Rb2NaGdBr6,10.9423,11.8322,0.8899
La2Tb2Pr7,11.4901,9.6066,-1.8835
Ca3NbI,36.5365,30.6682,-5.8683
Ba3Nd(GeO4)2,16.3447,13.8425,-2.5022
La2Pr7Dy2,11.6342,9.7498,-1.8844
SrAs2Pb,26.2353,24.6337,-1.6015
Ba2CaSm,7.696,9.5063,1.8103
LiOsSe4,40.2307,33.8575,-6.3732
Co(RhPb)2,38.3492,32.7226,-5.6266
PrSm3Ru,22.409,23.9627,1.5536
Tm3PdN,28.6417,28.4829,-0.1587
Re3RuRh,35.3851,35.6944,0.3093
Mn2VSe,86.8565,69.5779,-17.2787
Nd3RuRh,29.8649,27.6567,-2.2082
Na2LiCuMo,24.802,17.1905,-7.6115
SrTeC3,49.5067,36.0836,-13.4231
ScAgSb3,36.1038,29.3272,-6.7766
Cu2RhN,17.048,14.9985,-2.0495
MnSnPS,34.1876,32.1621,-2.0256
RbLaCuMo2,29.0005,21.0377,-7.9628
NdThAs2,26.3732,30.4142,4.041
Nb2CrRu,76.8976,63.7993,-13.0984
SiAsIr2,38.3371,37.229,-1.1081
RhIO2,36.2405,28.7546,-7.4859
NaFeNiB2,28.466,21.5118,-6.9542
SrBeCl2,14.2038,13.065,-1.1388
Ti7Al,5.5086,7.1064,1.5978
Ca2SnAs3Pt4,41.1917,31.6297,-9.562
PrPdPb,21.1818,23.8399,2.6581
MoAsPb2,33.3234,34.5913,1.2679
AlCrCl2,9.2148,8.4055,-0.8093
Sm3SnRu,16.0172,20.2459,4.2287
K(AlSb)2,18.1856,16.4407,-1.7449
Pu2PbBr,58.9828,57.9503,-1.0325
Th3TlRu,31.9584,40.4632,8.5048
YU4V3N8,48.3116,43.3305,-4.9811
LiLa4Te,41.622,31.8633,-9.7587
Ho3TeRu,22.0467,25.9742,3.9275
MnBePS2,44.6768,37.3406,-7.3362
CeSmPuSe3,35.0534,33.3544,-1.699
YTh(VN2)2,45.9446,38.2207,-7.724
TeS2I,44.9032,37.1813,-7.722
KAl2Sb,15.8214,14.3922,-1.4292
RbBaNa2Ag,16.5398,13.332,-3.2079
YAl(MoC2)2,38.5938,27.1659,-11.4279
La3Np,56.6349,46.4786,-10.1563
Sr2LaRe,38.8848,30.4846,-8.4002
Cs3(SbPt2)2,57.518,44.6161,-12.9019
AlTcRu4,27.8998,26.6396,-1.2602
NpNb5,129.8252,105.773,-24.0522
Sm3PuSe4,40.7268,36.7829,-3.9438
NaGe2MoOs,23.5398,21.499,-2.0408
La2NiRh2,34.5175,23.8587,-10.6587
Ta4BeAu,34.9246,36.7068,1.7822
SrTlBr2,22.8351,22.8376,0.0024
LiZrHgI6,26.5565,24.3905,-2.166
HoReNi,28.8864,19.3251,-9.5613
SrGaPS2,33.9694,25.7362,-8.2332
SrTlBr,27.1951,26.1147,-1.0804
Ac2Ga2Cl,29.0007,30.9678,1.9671
Na2ZrBeTe,38.6988,32.8629,-5.836
Ca2ThIr2,43.9648,38.1226,-5.8422
Ce(InSn)2,16.6704,18.8892,2.2188
BeInTc2,52.2723,45.0223,-7.25
GaCuGe,10.3869,10.1692,-0.2177
Ta4BeW,33.544,35.9204,2.3764
NaZn2FeGe,16.3382,15.0174,-1.3208
YPu2(NbN2)3,56.8778,48.8222,-8.0557
TaBeIr4,37.159,39.1171,1.9581
BaGeO2,13.2409,11.8491,-1.3918
Sr(Ti2Pb)2,21.6713,22.9878,1.3165
Ce4CdN,13.4766,15.7512,2.2745
La2PrBi,37.8007,31.9535,-5.8473
YU(TaN2)2,32.4378,31.8598,-0.5779
CaSm6Y3Er2,22.9807,23.1856,0.2049
SrLaGe2,20.6604,18.5959,-2.0644
Na2ScTc,70.8166,58.3283,-12.4883
CdP2SBr,20.8554,20.8247,-0.0306
YTa2AlN4,24.4042,23.8982,-0.5059
CaUS3,26.7262,20.694,-6.0321
NaScGe4,19.1864,15.5728,-3.6136
NbAlO4,13.6343,13.979,0.3447
La2Ce(NdSe2)3,39.0644,32.6757,-6.3887
PuVH3,19.5102,16.3217,-3.1885
Ac4MgPd,33.55,36.1824,2.6325
Cd2InSb2,27.2002,25.5722,-1.628
SrTaAs2,25.8301,22.1692,-3.6609
Tb2YErSc,15.6866,18.4107,2.7241
SrGa3N,9.921,10.2064,0.2854
Sb3AsW,38.8806,33.9512,-4.9294
NaIn2GaRh,25.4299,21.943,-3.4869
BiPtRh2,60.5195,47.7453,-12.7741
Re2PbW,43.5789,48.0441,4.4652
NaSr2CuNi,16.3679,14.7694,-1.5985
Sr2(AcPb)3,46.929,48.3204,1.3914
AsRhPb,37.0861,34.7615,-2.3246
LiGeB,0.0,1.8405,1.8405
Ba2FeRu,17.6369,12.3597,-5.2772
PmY(ZrNb2)2,100.5539,82.1911,-18.3628
YZr5Nb6,113.0803,91.7099,-21.3703
CaAcSb,35.2761,35.5245,0.2484
HfSbRu2,54.7637,44.6357,-10.1281
PIr2Pt,51.8493,44.3015,-7.5477
Ca2La2Sm,27.7177,23.9891,-3.7286
Zr2SbAs,62.3646,53.4806,-8.884
Ga(NiH4)2,2.0873,2.7319,0.6446
TbEr2Hg5,10.056,11.125,1.069
MgPaZn4,17.0671,18.0106,0.9435
SrLa2Sm,35.6086,29.4836,-6.125
Zr2CdSi,57.3743,49.055,-8.3194
Zr4Nb15Ag,127.5251,101.6625,-25.8626
Na2Y(NbN2)3,49.286,41.1874,-8.0986
LiHfRu3,38.9931,32.6087,-6.3844
Ca2LaPr2,11.6816,9.6003,-2.0813
Ca2LaPt2,42.1102,30.6165,-11.4937
Ca2LaTb2,19.7571,19.5794,-0.1777
SmYNb14,126.496,99.9066,-26.5894
SrScMo2,22.2248,22.3421,0.1173
Ce3Y(VN2)4,43.8475,37.0041,-6.8434
Ba2HfZr,57.2422,44.1983,-13.0439
Ca2Nd2Th,25.129,27.9473,2.8183
Ta2AlSb,23.122,26.8641,3.7421
AcEuDy2,36.9861,38.5631,1.577
NaThTlSn,40.415,41.3708,0.9559
MgZr4Tc,81.2974,69.6041,-11.6933
YZr6Nb5,109.4461,89.4568,-19.9893
Ca2AcI,23.8649,25.597,1.7321
ReP2PtS,56.219,45.6485,-10.5705
Sr3N,6.5947,8.6962,2.1014
SmGeIr,12.613,17.665,5.052
TlPb3Se,51.9197,49.5544,-2.3653
Pm3Te3S,29.9476,28.7462,-1.2014
Cu3SiGe,10.1891,9.5788,-0.6103
Tb2PuSe3,21.0962,21.8792,0.7831
K2TcAs,28.2787,25.7224,-2.5563
YTc5Mo4,67.8545,59.1436,-8.7109
Ta2AlSb,30.4552,26.8641,-3.591
Ca2Ni2Ir,18.8324,14.0252,-4.8073
Sr(HfZr)2,92.3675,71.6231,-20.7444
Y2ZrNb6,99.7762,80.2142,-19.562
YHg2Pb,25.4147,22.6763,-2.7383
NaLaY,30.1944,25.5814,-4.613
NaAs2RuRh,30.3592,25.0229,-5.3363
Ca2Pr2Sm,6.3501,7.6876,1.3375
PdS3Cl,34.3772,26.1715,-8.2057
V(SiNi)2,27.1881,21.8799,-5.3082
TmNpN,23.82,29.9764,6.1563
SrSiTc,56.7142,43.2504,-13.4639
ScCuI2,26.6326,22.9785,-3.6541
Mn4CoOs,74.818,62.5781,-12.2399
CeNd2SmS4,32.152,27.087,-5.065
TaSi3,13.3977,10.9359,-2.4618
CaTaAl2,12.2557,15.1478,2.8921
BaMgTl2F6,10.0808,11.7927,1.7118
CaTaAl2,11.9905,15.1478,3.1573
SiTcIr,50.0996,44.8729,-5.2267
Mn4GeOs,74.8904,62.6141,-12.2763
MnAgSn4,31.0834,27.9695,-3.1139
MnAgAu4,53.284,49.7541,-3.5299
PtI3N,34.5577,29.9185,-4.6392
OsBrN2,36.4371,31.492,-4.9451
Ac6PtRh2Br3,50.2834,46.3909,-3.8925
Th4MnAg,58.8122,56.3548,-2.4574
SmYNb6,111.4451,89.5346,-21.9105
Tm4MnAg,37.117,35.1892,-1.9278
IrBrN,19.2068,20.7834,1.5766
Ca2Pr2Er,7.2221,9.0211,1.799
CrNiPb3,43.8959,42.74,-1.1559
NaPmInCu,18.8629,19.6483,0.7854
U2Cr2Ni,40.8448,41.4056,0.5608
MnTe4As,46.2546,41.1512,-5.1034
YTm(ZrNb2)2,101.2363,82.9872,-18.2491
MoOsSe,39.9572,35.0535,-4.9037
TaAl2Si,24.3381,23.6808,-0.6572
PmPtS,49.6157,41.6326,-7.9831
NaSnN2,16.0151,14.913,-1.1021
Cd2Cu2Ru,10.8812,13.0129,2.1317
Ca2PaPt2,32.7928,26.0261,-6.7667
Mo2OsSe,37.1004,31.406,-5.6944
MnSnBr4,26.9876,24.8423,-2.1453
Ca2PrRh2,20.8791,16.2154,-4.6637
MnTlBr4,32.0561,29.7525,-2.3037
CrSnS3,33.8255,25.5266,-8.2989
TaAgI3,27.8665,26.6849,-1.1817
Ca2AcRh2,34.1227,29.728,-4.3947