Formula,E_hull_DFT (eV/atom),E_hull_ML (eV/atom),Delta (ML - DFT)
Zr3SnC,74.6989,61.7166,-12.9823
Pm3Th2ScAs6,25.4781,25.6175,0.1394
ZrSc2SnC,43.6121,34.3227,-9.2894
CdAg,14.9042,13.8612,-1.0429
Zr2ScSn2,48.2492,42.0711,-6.1781
ZrSc2Sn,39.8813,33.8075,-6.0738
Zr2ScSn,63.2019,52.6705,-10.5314
Al(GeC)2,37.4394,28.0802,-9.3592
AlAgPt2,52.821,39.5866,-13.2344
Cd7(AgSn)2,21.7955,21.0589,-0.7366
CaEu3N,17.8141,18.8669,1.0528
CdAg2,25.2028,22.9614,-2.2414
InRePb2,42.2107,43.9541,1.7434
Co7Au,11.9297,13.4705,1.5408
FeTcPt2,68.4761,52.4442,-16.0319
Al2CoAu,26.8649,22.3508,-4.514
Ag7Sn3,28.1842,23.708,-4.4762
Tb2MnAg,45.913,41.0741,-4.839
TiV3Cd,84.3438,65.4212,-18.9226
Ce3Cu2Ni7,17.0222,15.4752,-1.547
TbMnAg,41.527,36.4963,-5.0306
Tl2InPb,43.522,44.4682,0.9462
Y3(ErTm3)2,26.1147,27.6643,1.5496
TlSiBr,22.5267,21.4882,-1.0385
AcCo(BO3)2,5.6757,8.8478,3.1721
CaIrPd,15.2266,15.5705,0.3438
Mo3PdPb,27.8943,26.7371,-1.1572
TlSi3Br,22.6074,18.5217,-4.0857
CuSb2TeRh,38.1068,31.7652,-6.3416
Tb2Pr2Sb3,18.954,18.7452,-0.2088
ThPa2Hg,50.2493,52.7667,2.5174
TaTi2SnP,23.5096,19.168,-4.3416
KLiS2,26.9787,19.4524,-7.5263
CsPm2OsO8,8.3598,10.3687,2.0089
Tb2VGa5,27.6405,24.9093,-2.7312
LaPaPb2,55.8924,54.1236,-1.7688
PaTlSe4,51.0629,46.4982,-4.5647
NaTl3InSn,33.6279,33.893,0.2651
Li3SI,15.0221,12.3359,-2.6862
YEr3Ru,21.0773,20.5637,-0.5137
Y2ErPd2,25.4149,22.645,-2.7699
ScPd3Pb,7.7219,9.4676,1.7458
YErMo,30.5259,23.6946,-6.8314
Y4Er4Tl,24.8101,27.0799,2.2698
YEr(ScBi2)2,33.2256,35.127,1.9015
FeReTc,58.9889,49.6566,-9.3323
RbV2PtSe8,60.816,46.7118,-14.1042
Tl3W,43.8129,46.2893,2.4764
Nb2WI,86.9781,73.8033,-13.1748
K(EuRh)2,33.1796,27.536,-5.6436
Ba2SrLu,11.9337,13.5795,1.6459
Ba2CoHgGe,4.8558,4.1259,-0.73
Tb3Nd6Y2Er,23.7395,25.0707,1.3312
TbCe2(PuS2)3,50.8705,43.9735,-6.8971
Pm3(ScAg)2,22.734,20.9959,-1.7381
MnCdIr3,52.0951,49.2137,-2.8814
Ho3Ni7Ru2,13.0346,15.5598,2.5252
RbZr(InCl4)2,13.1269,13.092,-0.035
ZrPdRu2,36.7832,35.698,-1.0852
AlAsP,30.8468,25.2938,-5.553
Pm3(Nd3Er)2,25.8225,27.2013,1.3788
FeRe2Tc,54.2639,48.465,-5.7989
Eu2Mn2O5,67.5052,60.5283,-6.977
BaSr3Zn,10.5109,10.8167,0.3057
Nd3Ni7Ru2,12.241,14.6464,2.4054
YReHg2,22.8662,21.9489,-0.9173
Pr3(Sm4Tm)2,19.2287,20.4067,1.178
Pm3(ScCd)2,19.1723,19.5602,0.3879
La3Tb2Sm3,35.4313,30.9555,-4.4758
AcNdYEr2,28.2094,30.5855,2.3761
In2CuI,14.7617,16.468,1.7063
AcPmNd2,34.6914,37.527,2.8356
Er3TmCu4,17.9355,19.8494,1.9139
Tb4Dy2YEr2,25.9739,28.1654,2.1915
InCu3I,13.5392,13.9384,0.3992
AcPm2Nd,34.8262,37.5539,2.7277
SiIrC2,46.5101,35.9463,-10.5638
NaSbTe,26.9393,23.889,-3.0503
Sb2AsPb,38.2003,36.9441,-1.2561
InPt2,61.0618,48.6135,-12.4482
AlCd4Co,23.1284,19.7285,-3.3999
TaTl2Sb,46.8681,45.9811,-0.887
ZrRuW2,57.7987,53.059,-4.7397
Y2ScS,31.326,30.2456,-1.0804
B3AuI,16.1267,17.1054,0.9787
CsNaAg,25.0659,21.3688,-3.697
RbNbGa2,40.8821,33.7324,-7.1497
AcPmNd2,34.6793,37.527,2.8478
CaP3S,26.1929,23.9243,-2.2686
Tl2TcPb,62.3302,59.0218,-3.3084
Na3MnBi,47.2502,43.0022,-4.248
La3Y6ErTh2,33.3173,30.8756,-2.4417
BaLaFe2,19.1106,15.3481,-3.7625
V4Ga(TeS)4,70.0537,56.2969,-13.7568
Pm3Bi2Se,31.9482,33.5344,1.5862
LaYErTh,40.2524,39.5893,-0.6631
SrTc2Ge,46.4886,39.9789,-6.5097
BaSrLa2Fe,32.7407,24.8963,-7.8444
BaSrLa2Fe,33.512,24.8963,-8.6157
Si(IrPd)2,20.8741,23.2961,2.422
NaAg3Ir,33.7779,29.0225,-4.7554
LiPm2(PbS2)3,44.5835,37.0033,-7.5802
Eu2HgI,18.9847,20.1619,1.1772
ScTa2Re,74.0344,69.1211,-4.9133
TiSiRu2,18.713,16.6613,-2.0518
Ce3Pu2ThS6,50.22,44.4488,-5.7712
CaScIn,2.9977,3.5156,0.5179
Sb2AuN2,27.8294,26.3725,-1.4568
CaWC2,34.0546,29.2205,-4.8341
CaSc4In5,17.2796,14.5307,-2.7489
Y(CrBr)2,33.089,26.1694,-6.9196
TlTcMo2,44.1492,43.0606,-1.0885
TaHgPb3,39.2411,40.5401,1.299
Y2Hf2Sn,68.3156,48.7177,-19.5978
NaScSeS,41.6148,36.8574,-4.7575
LiPu3(NpS3)2,56.7683,49.5458,-7.2225
Na(IrRu)2,28.5845,26.4179,-2.1666
PmSm6Y2Er3,24.2367,25.6013,1.3645
TaMnHg2,34.1834,30.7314,-3.452
CaScIn,14.5364,3.5156,-11.0208
KPd2Cl,13.2069,13.9045,0.6975
Sb3Pb5,49.7344,47.5126,-2.2219
CaScIn3,17.5954,16.0326,-1.5628
HfGaRu2,39.4665,32.634,-6.8325
LaEr3Cu4,16.0168,16.6379,0.6211
Sm3ErCu4,16.2205,18.5269,2.3063
AsIrPbBr2,33.0854,31.3839,-1.7015
RbV(SnBr4)2,21.1126,19.1247,-1.9879
Li2SiS,10.6713,6.7273,-3.944
NaAlV2,67.3354,52.7934,-14.5419
Li2RuBr,16.8888,16.7512,-0.1376
CaFe2N,10.0688,9.0529,-1.016
RbV(CuBr4)2,21.1237,18.4939,-2.6298
Y4ErAl4,32.3245,24.8372,-7.4872
CsAgRh3,42.5797,31.8874,-10.6923
Sc11Ag4Hg9,7.0825,6.9654,-0.1171
Sn2GeBi2,28.379,29.7185,1.3395
BaPPb4,38.0335,37.9181,-0.1154
NaTiOs2,34.6051,34.6498,0.0446
PrNdIr2,26.1996,30.0692,3.8695
TaAlBr3,15.6084,15.9422,0.3338
Sr2TiOs,20.5011,22.0341,1.533
TaPdSe4,40.7552,35.1743,-5.5809
Ta2AlBr,22.459,25.2533,2.7944
SrLu2N,19.7252,22.4525,2.7274
TaAlBr,18.2481,19.9207,1.6726
NbC3Cl,67.7812,48.784,-18.9972
ScCd2Sb,23.5274,21.6111,-1.9163
RbLiZnS2,21.9292,15.2232,-6.706
BaLa2Pb,38.7868,32.761,-6.0257
Na2CdTeO4,9.4887,8.6311,-0.8576
Sc4AlTl,12.8378,15.0468,2.209
Tb2Y10Er,17.3018,18.6648,1.363
BaCaPr,1.2221,2.0728,0.8507
LiIr2SBr,38.9365,35.1158,-3.8207
ReSb,43.865,43.8281,-0.037
SrBe2V,41.0884,31.2463,-9.8421
LiMnSN2,33.0375,25.753,-7.2845
Ti,5.4043,10.1643,4.76
Ba7Na3N2,6.1807,5.5168,-0.6639
TaCu2,19.2896,6.3754,-12.9142
TaCu2,12.8681,6.3754,-6.4927
ReSb,35.1864,43.8281,8.6416
Rb2ZnReTe,28.6061,21.0491,-7.557
Cs(CaRh)2,22.738,18.6928,-4.0452
BaAcY,59.2155,54.5824,-4.6331
CsCe2(CN3)2,26.8763,24.9955,-1.8808
Rb2LiVS4,40.0382,29.3912,-10.6469
BaAcY,59.2083,54.5824,-4.6259
LiBeS2,24.4609,17.5506,-6.9102
Hf2Sc2In3,53.0061,40.059,-12.9471
Pm2Sc2In3,19.6951,18.9933,-0.7019
Cr5Ni,15.6947,14.7428,-0.9518
KLaBe3,14.357,11.7983,-2.5587
GaNiBr4,9.6714,10.5371,0.8657
GeSb3As,31.5646,27.2651,-4.2996
Cs7Ag3O2,21.6992,20.1576,-1.5416
Ba2Sr2Pt3,41.5462,30.7636,-10.7826
Zr2ZnSi,55.0065,46.7267,-8.2797
Ge(SbAs)2,24.12,22.1373,-1.9828
KVO4,16.68,11.9375,-4.7425
IrAuF6,17.8926,18.8655,0.9728
LaAlPb,26.3727,33.2305,6.8578
Tb3(NdSc)2,14.9866,17.5546,2.568
AgIr2Pb,38.0584,39.9229,1.8645
Sm(Y2Th)3,24.4532,27.7548,3.3016
ZnI6,20.7175,21.1735,0.4559
Nd2Tm3Sc2,21.6589,23.9567,2.2978
KAl2Cd,9.65,10.3661,0.7161
BaNbPb2,61.9892,55.8686,-6.1206
MoOsSe4,43.5324,36.1415,-7.3909
BaPb3,39.1255,40.5595,1.434
Be2InTc,29.5519,26.2576,-3.2944
TbBiSb,41.7645,41.1358,-0.6288
BiPb3,53.1314,54.8177,1.6863
Be2InTc,29.3395,26.2576,-3.0819
Nb2PRu,75.5904,63.5335,-12.057
Ti3AgSb,19.0082,17.6602,-1.348
NaCo2Cl,6.8979,6.8591,-0.0388
BeInTc2,51.9173,45.0223,-6.895
MnFePb2O5,39.6568,36.2681,-3.3887
Y2In9Hg,23.0805,21.9688,-1.1118
CsBeBi,17.5319,21.9699,4.438
BeInTc2,52.0159,45.0223,-6.9936
Na2NiRhF6,14.2788,12.4591,-1.8197
LiIrS3,43.0819,33.5224,-9.5595
Na2BeIn,17.7449,16.2567,-1.4882
DyNiAg2F6,13.2696,13.1086,-0.1609
Mn2MoIrBr,57.475,47.7552,-9.7197
ScTc3W,96.3239,80.5804,-15.7435
TlZn2Cr,17.5155,19.4722,1.9567
ScCrC,2.4422,4.4539,2.0117
NbTc3Cl,85.781,69.8045,-15.9765
NbP2Ru,40.8232,36.3638,-4.4594
Hf2GaRu2,57.4076,43.5035,-13.9041
BaCr4As,17.9738,15.5786,-2.3952
NiTe2I,28.8873,27.5657,-1.3216
TlZnCr2,20.667,20.0273,-0.6397
TlCr3,19.9009,19.6654,-0.2355
TlCr,19.4365,23.1134,3.6769
Sr11Tl9Pb4,33.5918,34.267,0.6752
InIrPtI,39.6118,35.6906,-3.9211
Ta4PtPb,48.5603,47.1645,-1.3957
Al2Cu2Se,11.5157,9.9443,-1.5715
Ba4Ca2Cr,8.5122,7.4488,-1.0634
NaPmSiAg,31.0683,26.5616,-4.5066
CrCoRe2,24.1743,27.2844,3.11
CsUTcN4,18.0869,16.3324,-1.7545
In3SeI,26.5456,24.3614,-2.1842
InIrI,16.1121,20.0992,3.9871
BaCa2Cr,14.6657,12.3535,-2.3121
Pr2Nd3Sc2,10.6969,13.0545,2.3576
Ni2TeI2,20.3849,20.9086,0.5237
KVO3,30.0709,22.7732,-7.2977
CrCo3Re,15.2023,16.3824,1.1801
VInPt2Cl,66.5908,49.9226,-16.6683
HoScTc,92.0257,78.2175,-13.8082
Cr2CoRe,16.5211,18.2756,1.7545
Ba3Sm(FeO3)2,5.9323,4.5327,-1.3996
Sc8Tl5Cd,22.2574,23.6269,1.3695
Sn3TeAu3,32.0419,32.8158,0.7738
Cs(AlBi)2,27.8359,29.0418,1.2059
InCo4Br,13.8185,13.3037,-0.5148
CaErTl2,33.7568,35.8714,2.1147
CdTc2Pb,64.9233,57.7735,-7.1498
Zr2NbN2,66.7031,57.2085,-9.4945
Li2TeAu2,24.1191,24.8297,0.7106
Al(CuSe)2,20.7883,16.245,-4.5433
U6IrSe12,53.4536,47.957,-5.4966
TiMo2Br,5.3084,10.0094,4.701
Tl2CdGeI6,26.3074,27.0361,0.7287
Nd2Cu4Si3Ge,13.7024,12.3971,-1.3052
BaLiNb,38.2887,31.8444,-6.4443
BaLiNb,51.3184,31.8444,-19.4739
V4SiN5,52.5584,41.6608,-10.8977
Cs3AlBi,26.4396,26.8145,0.3749
Y2ScHg6,11.3182,10.0175,-1.3008
Hg2TeBr,11.7373,11.5772,-0.1601
PmYSnHg,24.9557,23.1106,-1.845
CuSe,8.0916,7.5043,-0.5873
Pm5Ni4Pd,16.3165,18.7573,2.4407
Cs2AlBi,26.7595,27.5717,0.8122
BaSc2I,8.6463,10.0045,1.3582
NbMoSe4,57.6426,46.7762,-10.8664
AsPt3C,68.2969,48.7558,-19.5411
KYMn2,56.963,47.6145,-9.3485
Cs2TmPuO6,13.2635,15.7962,2.5327
RbTeNO2,18.8734,15.8544,-3.0191
Ni4SbRu,17.6008,16.8532,-0.7476
SrAl2Co,19.4584,14.0869,-5.3715
Y3UHg3Te8,36.3779,33.0119,-3.366
TiIr2I,23.1328,27.183,4.0503
La6PmBi5,49.9825,43.3251,-6.6574
TbTh2Ru,43.7901,47.6014,3.8112
NaLaAg,35.9148,28.0898,-7.825
NiSbRu4,23.085,21.9743,-1.1107
LiYHg,18.4256,15.7131,-2.7125
AcHoCdPt,49.7953,45.9783,-3.8171
CoPSN,65.6759,58.8943,-6.7817
Tb(YHg3)2,13.647,12.4338,-1.2132
BeCuP,8.8734,7.7308,-1.1426
BaPr2GeO5,7.6158,4.8787,-2.7372
Na2NdAs3Pt4,45.6834,35.0744,-10.609
CuP7,7.0662,6.1643,-0.9019
Sm2Th3Sc2,36.9968,40.4108,3.4139
Sr2MnTe,37.9762,34.6891,-3.2871
K2Zn5Au4,22.6389,22.9737,0.3348
K2SrRh,22.0786,17.8625,-4.2162
Sr2GeOs2,18.508,22.4557,3.9477
Ce2YHg6,10.6117,10.572,-0.0397
CsNiB2,10.2832,11.6187,1.3355
VGa3Sb,40.8876,33.1326,-7.755
Sm3(TmSc)2,20.9683,23.3037,2.3354
RbBa2P,9.996,7.794,-2.2019
Rb(BaP)2,12.0382,8.3879,-3.6503
InPt3,71.8413,53.6302,-18.2111
Dy9Tm11Sc4,25.2012,26.6208,1.4196
Sm9Sc4In11,21.211,20.1998,-1.0112
LiThZrRu,45.1075,44.0469,-1.0606
Mn(PdPb)2,42.5951,40.3723,-2.2227
Tb3(TmSc)2,21.642,24.0027,2.3607
YGaHg,19.131,15.1852,-3.9458
Ba2ZnW,9.9451,11.4875,1.5424
ReAgPt2,62.7433,50.1718,-12.5716
VP2C,43.3658,31.6931,-11.6727
Dy9Er11Sc4,24.6126,26.0327,1.4201
YHgP2,18.7752,14.2455,-4.5297
MnTl2Ag,54.8586,49.2598,-5.5988
RbBe2Cr,2.4954,3.8533,1.3579
ReSbPb2,48.4893,47.8791,-0.6102
LaCePr2,16.9578,15.6978,-1.26
FeTcTe2,44.6467,39.8856,-4.7611
Sr2ReAu,37.2489,33.1383,-4.1105
PaTc2Ir,73.8112,67.8102,-6.001
Mn2TlAg,70.6393,59.237,-11.4022
Gd2HgC,19.5813,19.4636,-0.1176
Ho9Sc4In11,22.4657,21.5763,-0.8894
Y2HgSb,30.6444,30.6231,-0.0212
Si2NiBr,11.9566,10.0681,-1.8885
Ta2Ir2Ru3,34.7126,34.5899,-0.1226
LiBeSeO4,15.2654,13.637,-1.6284
Dy11Ho9Sc4,24.0515,25.4664,1.4149
TlW,25.8682,36.2785,10.4103
SiNiBr,11.98,10.7661,-1.2139
Dy9Ho11Sc4,24.1281,25.5473,1.4193
PbIO3,29.2664,26.7423,-2.5241
Tb2YHg,13.0569,14.3568,1.2999
SrRe2Au,44.2899,40.6098,-3.6801
YGa2As,5.6033,9.4841,3.8807
AsRhSe,37.6176,33.1798,-4.4379
Na2Hf2PaSe6,61.7349,47.1651,-14.5698
Y4ScPd15,23.3065,21.5095,-1.7971
UPdSe4,45.8237,39.6084,-6.2153
NaIrRu,28.2641,24.3497,-3.9144
TlW2,34.5584,43.2538,8.6954
Ta2Mn,35.9846,39.2926,3.308
Na2AlAu2,29.0418,28.5308,-0.5111
Si2TeP,22.857,20.2691,-2.5879
Tc2AgGe,50.7752,44.1885,-6.5868
Ni(SeI)2,27.0555,23.7238,-3.3317
Ni2Ir,18.73,22.5164,3.7863
PrUSe4,35.0787,32.1554,-2.9233
Na2UAs2,27.1374,26.8432,-0.2943
GdAg4Sb,33.0647,28.3144,-4.7503
SrNi2Ru,15.5191,17.0131,1.4939
OsPbSe2,42.4442,40.747,-1.6973
Zr3Nb4,123.1088,100.7494,-22.3594
SiRuBr2,19.3089,15.426,-3.8829
La2Hf(TlSe2)3,56.1597,45.319,-10.8407
AcTmCoIr,35.9372,39.4213,3.4841
AcTb2Lu,37.8828,39.7835,1.9007
Pr6Er2In,0.9059,3.4876,2.5817
CaTlAgN,18.9205,18.5449,-0.3756
RhAuSe4,43.6756,36.1402,-7.5354
Os2PbSe,46.8001,47.7383,0.9382
GdTlRh,42.6902,39.8464,-2.8437
OsPbSe2,48.4078,40.747,-7.6609
Ta2TePt,51.2598,47.1016,-4.1582
V2FeI,70.841,56.2844,-14.5566
Tb9Nd11Sc4,22.1681,23.498,1.3299
Zr3Al5,38.4025,34.4936,-3.9089
Ga3Hg3I,5.4945,6.3601,0.8656
Zr2TaNb9,125.6851,100.5905,-25.0946
Ti2Co2Au,34.0432,31.0128,-3.0303
PuNi5,17.1735,18.8395,1.6661
B3Mo2,6.1153,9.9291,3.8138
Sc2BiPd,19.2906,20.6603,1.3697
OsRhSe4,41.2773,34.6778,-6.5995
Sc3AsS,34.0504,27.8965,-6.1539
RbCo2TcSb,32.5781,26.9794,-5.5987
VTe2I,58.8527,50.8901,-7.9626
YHgIr2,34.417,34.4997,0.0827
CePaFe2,41.3576,37.0593,-4.2983
ScTcSnRh,78.9802,65.4775,-13.5027
POsBr,20.9886,22.3878,1.3992
HfSc2Mo,43.745,35.4969,-8.2482
IrSeN3,20.4531,19.0683,-1.3847
TaFeP2S,35.1873,32.2735,-2.9138
Al2Au,13.7669,16.9573,3.1904
SnMoBr2,31.2667,22.9007,-8.3659
TlSb2TeMo,43.2337,37.6514,-5.5823
BaZr2Ag,57.6045,48.3944,-9.2101
YHgMo,27.5595,6.9278,-20.6317
CoMoOsBr2,26.3381,21.9117,-4.4264
NaP2Ir,25.3142,22.2154,-3.0988
YTaHg2,30.5036,25.8645,-4.639
TaMoBr2,19.3703,21.9718,2.6016
Tl(Sb3Rh)4,45.8499,37.4816,-8.3684
BaZn(GeS3)2,31.5962,23.0861,-8.5101
CdGa3I,14.0682,14.3999,0.3317
Nd4In12Rh,22.2102,22.1821,-0.0281
TaVNi,45.4309,38.9584,-6.4725
Sm4Ag3Au,29.77,28.5971,-1.1729
VHgPd2,40.9898,34.7485,-6.2413
U4CdRh12,51.5504,41.6589,-9.8914
CaYPb,30.2025,27.9179,-2.2846
RbMnI2,36.4793,31.4194,-5.0598
LiMg2Cu,7.8827,6.0184,-1.8643
CdGaI3,19.209,19.5285,0.3195
Pr12Dy5Ho2,9.4397,9.0926,-0.3471
PrCd5Ag3,20.4873,18.8833,-1.604
CaY2Pb,26.2126,26.0458,-0.1668
TaInAg,30.198,30.2191,0.0211
La6InAu2,41.9353,33.3763,-8.559
Ac2La6In,46.4582,37.2642,-9.194
Sr2InPb,22.1004,25.082,2.9816
SrCa3Pd,1.7712,8.7369,6.9657
TaIn2Ag,27.1421,27.4155,0.2733
PrZr2CuN4,19.0454,15.1664,-3.879
LaRe3W,43.3879,43.2793,-0.1086
Ta2InAg,31.3006,32.9939,1.6932
ZrCuRe,49.184,47.0892,-2.0948
LaReW2,33.3604,37.7126,4.3522
Sm4AgAu,29.6267,29.7888,0.1622
CdCoRe2,55.7774,49.0154,-6.762
RbCaSe2,45.7695,36.9278,-8.8417
CaYPb,30.1278,27.9179,-2.2099
La2ReW,45.8376,41.3951,-4.4425
SmLuAgAu,33.7365,34.4701,0.7336
Ca4YPb5,31.1735,31.8134,0.6399
AcPrCuPt,38.9482,33.888,-5.0602
Tl5Ag3Bi,44.8494,42.9104,-1.939
ZrVTe2,77.7856,66.0863,-11.6993
Tl(TeI)2,33.8608,33.6137,-0.2471
Sr(LaSb)2,35.7849,29.5815,-6.2034
SmAgPtAu,47.6901,41.2779,-6.4121
RbTi3Pt,22.3361,18.0163,-4.3198
CaYPb2,36.1397,34.9287,-1.211
ZrVTe2,77.5881,66.0863,-11.5019
LiSmCuAu,19.5194,21.7529,2.2335
CeReC,56.0556,49.7097,-6.3459
Tb2ReC3,52.9263,42.8578,-10.0686
SbTeMo4,26.6882,26.2867,-0.4015
VGeSb,55.5812,45.2923,-10.2889
LaSmSnAu,35.4574,34.2236,-1.2338
CaYPb,30.1451,27.9179,-2.2272
Y2InSi2,32.9721,29.0646,-3.9075
AcLaTb3Pm,32.3186,32.4869,0.1682
Ge2OsAu,27.1612,30.13,2.9688
CaYPb2,35.5256,34.9287,-0.5969
CaY2Pb,26.2549,26.0458,-0.2092
Pb2CBr,52.8877,45.9362,-6.9514
Ba2CeSnS6,31.8093,24.3876,-7.4217
Sr2SmUS6,38.064,31.3618,-6.7023
BaEr(TeS3)2,44.609,34.8615,-9.7475
Rb2ZrAlF6,19.1272,17.0234,-2.1038
Pa2TiSi2,25.3092,26.2067,0.8975
Sn2IrRu2,20.3404,21.3423,1.0019
TcAsIr2,47.677,46.7427,-0.9343
Y5HoEr8,24.0098,25.4803,1.4705
LiHf2Ta,74.0536,57.8539,-16.1997
BaLiW2,22.6545,24.5922,1.9378
LaCo2Ge,12.0707,12.1907,0.1199
Na3CaW,25.6018,22.646,-2.9558
CaYPb2,35.5447,34.9287,-0.616
Tb6Pr2In,14.222,16.5732,2.3512
Pr6InAu2,4.4414,6.2709,1.8295
Zr2CuSi4Pt3,52.7054,39.5574,-13.148
BaHo(TeS3)2,44.5021,34.7602,-9.7419
Ac4LaIn3,41.7255,41.9298,0.2043
NdTm4In15,21.8559,22.9485,1.0925
NaZn2Ag,17.8534,15.541,-2.3124
FeAg4F7,14.7205,13.075,-1.6455
RbTiAl,1.3262,3.0773,1.7511
AcMgAs2Rh5,37.4963,29.2829,-8.2134
UTl2BiS6,50.9862,43.1608,-7.8254
Y3Al3In,30.4163,24.1847,-6.2317
Ac2Cu2SiPt4,57.0189,45.3111,-11.7078
Ca3YPb4,31.8828,32.265,0.3822
Y3Al3Os,32.3485,27.1962,-5.1523
Sc2AgS2,39.2366,34.3885,-4.8481
NaZnAg4,26.3359,21.3359,-5.0
SmPuAu2,47.3355,49.7009,2.3654
ReGe2Mo,25.4396,25.1818,-0.2577
TlInOs2,39.4897,42.0669,2.5772
CaY3Cu4,29.3457,21.9923,-7.3534
Ta2CdCo,46.0454,38.7411,-7.3043
Sr2MnHg,31.61,27.3339,-4.2761
TlIn2Os,29.9413,32.4891,2.5478
Ba2YNpS6,43.9787,35.2053,-8.7735
Ba2YPuS6,44.0613,35.1218,-8.9394
K2ScIr,27.3739,20.5179,-6.856
TaGe2Br,17.5259,19.2963,1.7705
Sr2PdI,15.9739,17.6005,1.6266
SnBiPt3,69.5622,54.169,-15.3931
SnGeOs3,33.7042,35.4385,1.7343
Sm2ScAl4Au3,20.7706,22.0082,1.2375
Tm6In2Re,29.0286,31.0989,2.0703
CaYCu4,17.3749,14.2821,-3.0928
SnGeOs3,32.5675,35.4385,2.871
Ti3PbBr,22.8371,21.9363,-0.9009
AlAgTe2,29.3987,26.58,-2.8188
BaNaIn,14.6386,14.3284,-0.3102
SrCaY3,18.4444,15.2682,-3.1763
SnOsPb,27.1562,33.0631,5.9069
SmGd2Sn,25.8285,28.6046,2.776
Ac2TbSc,40.2554,42.7719,2.5166
TlInMo2,26.0674,28.4867,2.4193
Pr(SbTe2)3,33.7699,30.9702,-2.7997
SmGd2Sn,25.7558,28.6046,2.8488
Y3HgO,30.8771,25.2455,-5.6315
CaMoP2S,34.0005,26.3287,-7.6719
Na2MnFeF6,21.9795,20.2131,-1.7664
SnRuBr3,18.8065,17.0101,-1.7964
Na2DyMnF6,20.9204,19.7845,-1.136
CdSnTe2,31.029,30.2946,-0.7345
ErMnAu2,55.3882,52.1829,-3.2052
RbMg6W,8.7235,8.2026,-0.5209
KMg6Si,5.6772,5.2291,-0.4481
Mg6CuSi,7.2988,5.81,-1.4888
V3AgP,85.9868,65.6453,-20.3415
MoBr2Cl,9.1083,9.5868,0.4785
AgHg2Ir,16.6887,17.1375,0.4488
Sr4LiY2(RuO6)2,23.5874,21.1589,-2.4286
Sr4LiY2(RuO6)2,23.5808,21.1589,-2.4219
BaZrTa,45.9695,42.6269,-3.3426
Hf3NiOs2,86.2286,67.6117,-18.6169
Cd(SnTe)2,28.9394,28.0746,-0.8648
RbNa2HgF6,5.7521,5.158,-0.5941
Y2Hg2Pb,26.6241,24.6048,-2.0193
Sc4Hg2C,11.0627,10.3648,-0.698
Dy2ScAlO6,29.1254,27.4699,-1.6554
Ag2HgIr,26.7593,25.5289,-1.2305
YTm7Hg4,21.9334,22.2369,0.3035
ScAl(GaO3)2,32.356,28.0238,-4.3322
Na2ScCuF6,9.7501,8.7501,-1.0001
ZrTa3,52.2415,52.5648,0.3233
TePb2W,47.1004,49.3205,2.2201
Sc5AlZn4,5.7951,7.889,2.0939
ErLuTlIn,33.045,35.5699,2.5249
Tl4In5,33.6302,34.4613,0.8311
GdPbSe2,43.4343,39.9055,-3.5288
Ho4PS3,34.3802,31.2467,-3.1335
HfNbCu,73.1035,58.7567,-14.3468
K3Br,11.0801,10.4766,-0.6035
LiCu2Se,15.7387,14.3011,-1.4376
SrBe3O,9.1135,6.0126,-3.1009
Mg(CoMo)2,5.1898,8.8359,3.6461
LiCuSe,17.8304,15.9243,-1.9062
Li(CuSe)2,21.8649,18.565,-3.2999
Tc3RuC,72.9811,60.0332,-12.9479
Th3(SiGe)2,34.542,34.6815,0.1395
NaTc2TeSe,61.0328,50.1339,-10.8989
Y2PuHg,43.4878,39.8906,-3.5972
Rb3Na2CrF9,11.4307,9.9128,-1.5179
Sc2TaGa,61.5405,57.1427,-4.3978
Cs2GaSnBr5,10.8349,12.1088,1.2739
TbFeAs,31.9024,30.4951,-1.4073
NaCu2HgF6,7.7025,7.8484,0.1459
Sm2Np(NiPt4)3,67.298,51.0095,-16.2885
Tb2PrOs,22.4315,26.3837,3.9522
SnOsPb,32.8153,33.0631,0.2478
Hf4SiSe3,90.9703,64.936,-26.0343
AcPt(RhO4)2,20.8566,16.6192,-4.2374
PrAgGe2Pt5,54.6675,39.8172,-14.8503
NaYTlHg,31.2066,28.4474,-2.7592
Ce2AgSn4Pd3,24.6574,21.9344,-2.723
Ni2AsBr2,13.7681,11.191,-2.577
LiPdI3,17.1061,17.5243,0.4181
HfCuSi,41.8755,30.0247,-11.8507
HfCo4Ru,30.5432,26.1508,-4.3924
Ti2Co2Br2O5,18.103,14.8263,-3.2767
BaCa2Gd,9.999,11.8154,1.8164
Ba2CaGd,8.7678,9.9699,1.2021
HfCuIr2,51.3523,45.9592,-5.393
BaCaCo,8.7181,8.264,-0.454
CaGd2Co,23.9224,23.7049,-0.2176
Sr2LaAg,25.0118,22.2749,-2.7369
Y2Tc2Hg,91.435,75.8793,-15.5557
TbY2Rh,25.4578,24.8195,-0.6382
Hf2Si2Se,65.0201,45.4516,-19.5684
K2NaVF6,15.4272,13.118,-2.3092
KScCoO3,73.3306,63.4369,-9.8937
Hf2VCuAs,87.2409,64.0993,-23.1416
PrSmSc2,12.3797,13.7252,1.3456
Y2HgAs,27.0461,23.6479,-3.3981
Hf2CuAs4,47.1831,35.9661,-11.217
HoHfCu4,33.0873,27.7464,-5.3408
Li2HfCu,34.2974,28.6032,-5.6942
Hf3TiCu,89.2839,63.8031,-25.4808
HfCuMo,46.0074,32.1952,-13.8121
HfV2Cu,95.0,73.1157,-21.8843
Rb2NaSrF6,5.3975,5.019,-0.3785
Rb2NaTeF6,12.9354,11.3723,-1.5632
YHgAs,19.6079,18.4094,-1.1986
MnTlInTe3,45.0363,41.1925,-3.8438
Na2SnWO6,24.2927,22.0143,-2.2784
Hf2CuSb,77.7501,58.7966,-18.9535
HfCu2RuW,52.3266,40.288,-12.0385
HfThCuOs,64.4194,56.8619,-7.5575
CsNaSn2F6,11.2506,9.9943,-1.2563
Y2HgPd4,24.8637,22.6223,-2.2414
NaSiAg2F6,12.4176,12.0263,-0.3913
Hf5Fe4Cu,79.7607,57.8415,-21.9191
Hf2CuRu,70.1028,53.611,-16.4918
Nd2SnSb3Pd4,28.6051,26.0016,-2.6035
SiIrN2O,16.4904,13.2383,-3.2521
Cs4La3TbO8,26.8503,24.9602,-1.89
HfCuSb3,57.5882,44.6052,-12.983
YHgIr2,28.6008,34.4997,5.8989
HfCu2Sb,45.2573,35.5892,-9.6682
AcPt(SO4)2,21.5064,17.9548,-3.5516
Re5Ni,47.2131,43.4787,-3.7344
Th2CuSi4Ir3,32.3368,31.3601,-0.9768
NiAg2BiF6,16.5862,15.9684,-0.6178
CaHfCu2,42.5695,31.47,-11.0996
TePbWI2,37.2222,36.7118,-0.5104
La3SbPd,44.1359,34.1565,-9.9795
Tb2PmRu,30.1844,31.0251,0.8407
HfCuSi2,38.886,27.7771,-11.1089
PuNi2,28.0478,30.6105,2.5627
Tl2NiPdF6,12.728,13.9369,1.2088
Li2GeI,5.3363,7.4886,2.1523
TaFePb2,38.6832,39.08,0.3968
Cs4Nd3TmO8,10.5736,11.9082,1.3346
HfCuSiAu2,53.1072,43.4168,-9.6904
HfCuPb2,64.3365,55.0421,-9.2944
SrHgGe2Pt5,52.9662,39.0851,-13.8811
Ac3GeB2Pt9,66.5595,51.3112,-15.2483
HfTi2Cu,40.1893,31.7792,-8.4101
HfV3Cu,108.3871,81.4026,-26.9845
Hf6CuSb,114.4995,80.7577,-33.7417
HfCu3Cl,35.1263,26.1942,-8.9321
Hf2CuBr,79.7263,57.6267,-22.0997
Y2HgPd,29.3533,25.4753,-3.878
Hf(FeCu)2,61.5426,46.1929,-15.3497
In4Ni3,13.8928,15.2672,1.3744
CePrGe2Pt5,53.1758,39.6493,-13.5265
Ac3B2SbPt9,68.9438,53.1425,-15.8013