Formula,E_hull_DFT (eV/atom),E_hull_ML (eV/atom),Delta (ML - DFT)
Co2SiAg,14.7271,13.4301,-1.2971
TlAgRu2,30.1785,29.2651,-0.9134
LiZrAs,35.8676,32.665,-3.2026
KRePt,42.3539,36.3098,-6.0441
CuPt2W,55.9072,44.93,-10.9772
ScUSn,34.4923,32.8639,-1.6284
Tl2SnRh2,39.4217,35.1998,-4.2219
Sm4Ga12Fe,12.8544,13.3822,0.5277
CsLi2InAu,19.2925,19.0526,-0.2399
ErTmGaRh,28.6149,27.1489,-1.466
BaLiAu,18.5131,18.567,0.0539
AgRu2F,14.2016,14.7138,0.5122
SiAgTe2,32.9565,28.2626,-4.6939
Sm2Al2Pt5Au,48.3352,37.23,-11.1053
Li2AlRh,15.9622,12.0987,-3.8636
LiCeGd,18.3972,20.8737,2.4764
NaCeN,10.3126,13.2562,2.9436
GePBr2,6.6613,8.5166,1.8553
Sm(ZnAu3)2,32.7858,34.3861,1.6003
U4FeRh12,50.3194,40.1391,-10.1803
LiTiIn,10.0311,10.6341,0.603
Ba(FeAs3)4,25.4978,21.4841,-4.0137
Tl2CdTe,38.3522,40.9158,2.5636
Li6MnBr8,26.5678,23.9618,-2.606
AlRu2Rh,31.8934,27.946,-3.9474
Cs2UTa2O7,26.193,20.2535,-5.9395
ZrMoRu,46.1464,41.6161,-4.5303
ReIrSe,44.724,45.2096,0.4856
SnBiP,26.439,27.9317,1.4927
Y2P,28.0518,23.5945,-4.4572
Sm2GaAu6,37.4204,38.9102,1.4898
Ce2PrGd,18.8155,21.8825,3.0669
TaCd2Co,41.8807,33.2426,-8.6381
La6ZnFe2,30.847,20.11,-10.737
LaInNi2,15.439,15.0275,-0.4115
Co2AgOs2,18.4727,22.706,4.2333
Mg2InSb2,19.8443,17.5044,-2.3399
Er2TiGa2Rh5,24.9638,20.7392,-4.2245
Pm2ErTmSe5,37.7101,33.2375,-4.4726
ScAsRhS2,45.728,34.53,-11.198
Er6ZnFe2,16.0221,18.3785,2.3564
CaY2PPb,32.0795,26.0929,-5.9866
ReTc2Te,67.4346,60.7513,-6.6832
Mo2RuRh,26.5988,25.7356,-0.8632
Tm4Ga12Ag,14.5241,15.1922,0.6681
ZnSn2Bi,26.1118,25.5361,-0.5757
Sm(GaAu2)4,33.5247,34.7831,1.2584
LaU4In15,31.0974,31.5762,0.4788
SbRh2Cl,36.8933,27.5645,-9.3287
SiNiAg2,20.9001,16.3564,-4.5437
CuGe2Pb,19.9044,21.6832,1.7788
Ag3TeAu3,38.0671,34.7969,-3.2702
DyY2(HoRh2)3,35.3253,28.8817,-6.4436
TaAg2Rh,37.4171,32.7916,-4.6255
Sc2AsRuN,38.0512,31.0084,-7.0428
LiHfCo2,39.7066,30.8256,-8.881
SbPAu,32.2302,30.2073,-2.0229
Ho4ErSn2,26.6897,28.1828,1.4931
Zn2GaFe6,7.3921,6.1288,-1.2633
Pm8Er3Sc2,23.9434,24.6659,0.7225
AgTeAu2,42.0427,40.3885,-1.6542
Ag2TeAu,38.1433,34.4491,-3.6942
TlGa3Re,24.9101,25.6607,0.7506
TlIrBr2,29.3677,31.1544,1.7867
SnTeBr2,21.3902,22.2066,0.8164
ErTmTlAu,38.9272,41.3357,2.4085
In2Ga2Sb,17.2648,16.6038,-0.661
Na2AlCd,17.9531,15.9268,-2.0263
Hf6Cd2Fe,100.0424,72.7895,-27.2529
ZrSb2Mo,50.8695,42.8065,-8.063
CsBaLi2In,12.3516,11.6117,-0.7399
CsScMnBe2,30.8623,23.8392,-7.023
RbZr2Re,54.6245,47.5157,-7.1088
Cs2CoTcBr6,23.3105,20.4546,-2.8559
Na2SrCaI6,19.8871,18.7417,-1.1453
Fe(Co3Pt)2,31.8855,24.3726,-7.5128
Y2GaP,17.6702,15.3928,-2.2774
ZrTaMo,50.606,49.2081,-1.3978
TbNdRhAu,36.1682,35.0075,-1.1607
Sr2YAl2,18.1148,15.5599,-2.5549
TbPmBiAu,37.6613,40.2735,2.6122
AsOs3Ru,34.2024,35.0674,0.865
CuAsBr2,13.2153,13.336,0.1207
Nb2SbAu,93.8209,79.4592,-14.3617
AsCI2,28.1507,23.6345,-4.5162
Si3P2Pd,10.6206,9.1728,-1.4478
Y2CrGa,26.9579,22.8979,-4.06
SrTcN3,0.0,13.2395,13.2395
TlIrBr,35.911,37.3178,1.4068
Co3BiRu,19.7952,21.3292,1.534
TaSeI2N,28.4909,26.1897,-2.3012
InBiP3,18.0397,18.9645,0.9248
NaCaTl2Pb,33.9865,34.5107,0.5241
TiAlCu2,2.977,4.6575,1.6806
AcTlTePd,43.4004,44.7655,1.3651
TaSeIO2,35.1917,30.3487,-4.8431
Ti2Al4Cu,6.2755,6.4194,0.1439
CsCuTe,13.8118,15.8415,2.0297
CuNiMo,32.6754,28.7626,-3.9127
VBRu3,37.5786,33.0799,-4.4986
CaIn2Si,19.9384,17.0793,-2.859
GdScMnCu,50.8842,41.6182,-9.266
TbCe2(AgSn)2,25.4372,25.0886,-0.3486
BaLiLuIn,15.344,16.4092,1.0652
NiAgOs2,30.9303,32.2792,1.3488
SrAc(GaPt)2,44.7335,37.0257,-7.7079
Rb2ReMo,20.7611,17.4681,-3.293
SrAgGe,7.5453,8.9229,1.3777
BaZrSb2,46.6796,38.9772,-7.7024
Y2GaSn3,25.5851,20.1375,-5.4476
Sb2AsRh,32.173,25.7728,-6.4002
CoCuBr,29.6113,23.0167,-6.5946
AlTl2Te,36.7734,37.1494,0.3759
Rb2NdPaTe4,31.8956,32.1648,0.2693
TbTl(InI3)2,24.6442,25.8329,1.1887
AlTl2Te,36.8077,37.1494,0.3417
Al(H2Pd)6,5.841,6.8327,0.9917
GdPt,24.2699,37.3504,13.0805
Ca2InSi,15.9566,13.9255,-2.031
Co2CuBr,29.6446,21.28,-8.3646
Pm4Ga12Ge,11.8249,12.9842,1.1594
TlIr3Br,41.0502,42.1165,1.0662
CuPCl3,8.515,6.638,-1.877
KZnFe2,7.529,6.802,-0.727
CaTaSe2Br,47.6335,39.4754,-8.158
AsPCl,17.5347,14.9315,-2.6033
Cs2TiAgO4,6.3823,8.1686,1.7863
Sm4Ga12Ge,11.8844,13.047,1.1625
Cs4AcTa3O12,22.9096,18.0442,-4.8654
CuTePt,46.2492,37.8741,-8.3751
TcIrPd,26.834,29.785,2.951
PbI,30.4035,32.3087,1.9052
YNi,76.5798,68.2944,-8.2854
HPb2ClO,21.4133,22.7544,1.3412
P2PtI,27.6446,21.83,-5.8146
Al2GeP,30.9808,23.9207,-7.0601
Sr3Al9Ag2,9.297,9.14,-0.157
Y2Tm2Sc,14.561,18.3374,3.7763
Hf2ZrS,110.3771,81.8165,-28.5606
K2TlCuBr6,12.597,13.1431,0.5461
AcSm(SiPt)2,48.611,38.644,-9.967
Tl2CoAu,40.2884,40.523,0.2346
CaY2Cu,27.799,21.3023,-6.4967
LaTh2Al9,17.2018,17.729,0.5272
KZr2Ag,60.5922,49.8204,-10.7717
Sm2Y2InGa4,15.2055,15.6962,0.4906
PmPb,33.4959,37.9782,4.4823
LiSm2Re,22.7658,26.0132,3.2474
NbSb2Se,70.3359,57.0133,-13.3227
Cr2GeBr2,31.7518,28.1814,-3.5704
TaPSeN2,31.8044,27.2505,-4.554
NaTlCdRh2,39.4244,32.3822,-7.0423
Li2InSe,17.9343,15.601,-2.3332
ErScInRh,26.5,24.3445,-2.1554
Sr3PmSn3,14.1674,16.875,2.7076
Tl3FeTe,39.8816,39.5094,-0.3722
MnBeTc2,71.8162,59.6909,-12.1253
La4Ga12Au,20.3026,17.0112,-3.2914
CuPbSe,36.1811,34.8744,-1.3067
LiInSe2,30.0362,24.9215,-5.1147
SrTcO3,0.0,4.0479,4.0479
KReSi2,21.3624,19.0432,-2.3192
YTlRe,35.6437,38.1669,2.5231
K2RbTl6Pt,39.6387,37.5812,-2.0575
Sr2CaY,16.6235,14.1636,-2.46
CaZrHg3,20.7169,17.6599,-3.0571
LiInSe2,30.2774,24.9215,-5.356
Er6FePd2,17.5637,20.2104,2.6467
SrCaY2,18.9237,14.9106,-4.0131
Ac3La2(PrTl2)2,44.3714,42.3708,-2.0006
NaRe3Rh,42.2518,39.1791,-3.0728
Tb5(Er6Zr)2,36.0645,35.4984,-0.5661
Pr6FeAu2,6.6958,7.508,0.8121
CaYCu2,22.8051,17.217,-5.5881
Ba2TlSn4Au3,27.0445,28.1653,1.1208
MnCrBr2,46.6754,37.3888,-9.2866
K2ZnAgBr6,9.6611,9.954,0.293
ZnCdC2,35.289,26.4106,-8.8785
CaYCu,25.9084,20.5049,-5.4035
Nd4Ga12Os,13.6527,15.2506,1.5979
KHg2PdBr6,9.2775,9.9223,0.6449
In2NiAg,19.3605,18.8979,-0.4625
NdMnCu4,25.1569,22.5428,-2.6141
Ac6FeRh2,53.6517,51.9375,-1.7142
Te2RuCl,26.4965,26.5294,0.0329
MnNi2Br,56.5495,49.0082,-7.5414
ErHfAgPd,55.1711,44.7501,-10.421
Pr6SmSc,7.3051,5.8649,-1.4402
Sr3NbAl,38.1577,33.1394,-5.0183
BaScMo,19.2456,19.4704,0.2247
HoTlPb,43.7617,45.7752,2.0135
TlCdGa,20.2436,22.6322,2.3886
HfZr2Nb,120.619,95.2754,-25.3436
ZrNiAg2,37.4755,32.8923,-4.5832
HfZrNb2,131.4198,104.7481,-26.6717
Mn2ZnSi,56.003,43.1075,-12.8955
Ca2YCu,20.7806,16.863,-3.9177
LaSb2As,37.3118,28.9472,-8.3647
LaSbAs,34.8077,27.0577,-7.75
CaY2Cu9,16.8848,14.2875,-2.5973
Ca(YB)2,75.2554,61.9603,-13.2951
NaInNi3,13.5377,13.4023,-0.1354
AlIn2Br,13.602,14.5978,0.9958
Te2Rh,45.135,38.7077,-6.4273
AlIn2Br,13.6732,14.5978,0.9246
Sr(IBr3)2,12.3214,12.9966,0.6752
Sr(AuBr3)2,17.141,17.3639,0.223
Pr6SnRu,21.6832,19.2489,-2.4343
Ca(SmSi)2,15.2344,14.1262,-1.1082
NdSmZrSc,38.4905,36.7271,-1.7635
Ca(ThSi)2,30.7315,30.1989,-0.5327
Ca2PdSe,34.8759,29.4531,-5.4228
La2SbAs,38.5449,29.7552,-8.7897
AcAlBO5,0.0,2.6666,2.6666
Sn2Bi2Sb,39.345,38.2441,-1.101
AgPtBr3,32.9112,24.8018,-8.1094
Ca2Ag(GeAu4)3,35.2524,35.6487,0.3963
Zr2TlP,62.2984,55.5197,-6.7786
SrTcAs2,36.3008,29.3822,-6.9187
AgPtBr2,37.9291,28.3049,-9.6243
Cd(SiPt)2,45.3313,31.799,-13.5323
HfRuPt3,86.8578,61.2354,-25.6223
TeRh2,46.9822,37.1024,-9.8798
LuGa2Sn,17.523,19.3906,1.8676
Sn2Bi2Sb,35.5105,38.2441,2.7336
TePRh2,35.5482,30.6098,-4.9384
Rb2Ga3H2Pt5,39.4066,28.3489,-11.0577
Ca2AgWO6,37.9638,32.7511,-5.2128
CaTaSe2,54.6545,45.1626,-9.492
Li2InRe,16.8223,17.4095,0.5872
Sr2Ge5Au3,17.1988,18.822,1.6232
CaY3B,52.4451,41.6133,-10.8319
Pr3GaIr3,14.3939,15.9013,1.5074
KU(CuSe3)2,32.9723,28.9472,-4.0251
CaTaSe2,55.1373,45.1626,-9.9748
Ta3GePt,42.7718,39.7878,-2.984
AcTbY2Tm,24.7459,27.781,3.0351
KWO3,12.8218,9.9823,-2.8395
Rb4Mn3SnBr12,22.1207,18.9482,-3.1725
ReP2Pb,45.9026,39.7595,-6.1431
In6Ge2Ru,17.1414,18.2722,1.1308
Rb2LiBe,2.7118,2.4949,-0.2169
Ce2PaSi2,21.9094,23.1643,1.255
Sm4As2AuSe,32.9247,33.764,0.8393
Gd2ThAl,31.746,34.8894,3.1435
ZrAlSb2,47.6845,39.4535,-8.231
Nd3LuFe,21.7234,23.3294,1.606
Li2TaSeO6,20.7588,17.9945,-2.7643
Ca3YMn,30.138,23.0691,-7.069
Ta2PPt,43.1099,39.0815,-4.0284
Ce6Ga2Sb,23.1562,23.7157,0.5595
CsTb(AsPt2)2,52.9761,40.1871,-12.789
La2BiAs,40.713,34.3802,-6.3328
YLu2Th,36.863,40.373,3.51
CsCu3Tc,29.9548,26.3658,-3.589
TaPPt2,56.2823,43.6971,-12.5853
Ce2SmSi2,14.2467,15.2097,0.963
RePbCl,33.198,34.7121,1.514
LiCa3Tc,22.7643,19.7131,-3.0512
MgV,57.5847,44.4715,-13.1132
ReTe2Br,35.0764,34.4366,-0.6398
U4NbRh12,58.6414,46.9849,-11.6565
SrPr5Te8,21.864,21.7864,-0.0775
Cd(NiGe)2,17.0476,13.1551,-3.8925
AcCe2Y,32.2026,34.1974,1.9949
InBiC2,51.043,41.4566,-9.5864
K2ScPb,20.6063,20.8792,0.2729
NaCd3O,16.5522,15.8986,-0.6536
Ta2PtRh,52.7114,45.9103,-6.801
InCu2Br,14.7262,14.3921,-0.3342
CaNdI6,19.802,20.8453,1.0434
Tm(UIn4)3,29.581,31.024,1.443
Cu2TeSe2,30.7312,26.9736,-3.7576
Be2BiI,30.0193,31.0834,1.0641
BeBiSb2,36.7227,32.6285,-4.0942
SrTc2As,51.1623,46.0966,-5.0657
InCuBr2,15.3055,14.9206,-0.3849
ErPu2Pd9,27.098,29.0081,1.9101
RePb2Cl,37.8338,39.524,1.6903
InCuBr,16.915,16.637,-0.2779
LiAcNd2,28.7982,31.2008,2.4026
CuSbRh,7.0996,5.7199,-1.3796
ReNi7Rh4,30.1282,22.4201,-7.7081
Mn2ZnPb,65.1007,53.9243,-11.1764
NaLiBeW2,24.6458,23.9892,-0.6565
Pa4Ni12Pt,25.0893,25.3521,0.2628
PmY2Te3,28.4714,28.7316,0.2602
Ta2GeP,23.2822,25.6092,2.327
Sr3NpO6,0.8601,5.3797,4.5196
Pa4Ni12Rh,22.7684,23.937,1.1686
RbCrP2,28.8914,21.9623,-6.9291
La3Yb,47.5579,35.1394,-12.4185
Li2AgPbF6,7.4876,8.3527,0.8651
CdPAu,23.4949,24.8354,1.3406
Ac6Ga2Hg,40.7911,43.3807,2.5897
Ti2SnSb,22.8033,18.0131,-4.7902
Ca2CrOs,25.3237,23.1579,-2.1658
In6Ga2Bi,21.215,22.1075,0.8925
La3Pm4YTe8,36.3574,33.0212,-3.3362
P2PbAu,27.3562,29.0738,1.7176
AlRh2W,34.6684,29.6485,-5.0199
BeNiSb2,29.1064,22.6888,-6.4176
Be2NiSb,17.6745,15.0448,-2.6298
ZrSbC2,59.5735,45.5509,-14.0226
KLi2ZnF6,1.0953,2.7365,1.6413
Li2GaPdF6,7.0287,7.8002,0.7715
KLi2PmF6,6.0135,7.7307,1.7172
Hf2TaV,125.1502,94.291,-30.8591
YTmZnPb,27.8275,28.306,0.4785
Ta2CdP,26.3213,28.1948,1.8735
Ce(PuGa3)2,23.9533,25.6512,1.698
NaZnIn2C,27.1742,22.3325,-4.8417
LaNb2Ag,85.7765,69.524,-16.2525
SrLi2GeBr6,12.8615,12.4495,-0.412
Ac5Tb,58.2446,60.2116,1.967
Tc2Au,70.0245,64.0027,-6.0218
BaSbSe4,39.5065,31.8345,-7.672
Li2HgAuI6,16.8119,17.8871,1.0752
Nd2PaGa6,18.0087,20.2412,2.2325
SrLi2GeI6,12.2426,13.9149,1.6723
LiAlFe2,17.7498,16.5188,-1.231
U(PaGa3)2,27.9549,30.3509,2.396
TbPt5,78.439,56.4821,-21.9569
Al2AgSb2,22.1253,17.6761,-4.4491
Pa2CuSi2,27.3678,29.6686,2.3008
Zr(CdCu)2,26.4087,25.3018,-1.1069
CoW2Au,27.1911,32.9118,5.7207
PrAlIn,3.4037,4.9894,1.5857
Li2BeAl,12.4722,9.1816,-3.2906
YBi3B,74.0657,66.0551,-8.0106
Rb(NiSb3)4,37.5218,28.076,-9.4457
Cs(NiSb3)4,38.8488,29.432,-9.4169
LiAg2HgBr6,16.4398,14.8046,-1.6352
Co2CuAu,33.5784,29.0163,-4.5621
Zr3Au5,65.8835,60.5987,-5.2848
SmUFe4,15.6666,18.5632,2.8967
MnCdSi,44.7924,35.2374,-9.555
LaErIn6,24.5832,23.5258,-1.0574
Li2MnHgI6,24.0764,22.0761,-2.0003
SmHo3In4,23.1958,25.4242,2.2283
Tm2InHg3,12.9869,14.4083,1.4214
Sr4Ge2I,10.1158,11.9658,1.85
Pm6NdGa2,20.9004,23.8864,2.986
Al3Ag3Pb,19.7929,17.3313,-2.4615
YAsAu2,28.965,31.7022,2.7372
KAl2V,33.7997,27.8809,-5.9189
Ce3IrSe,11.8372,15.9979,4.1607
MgAl2AgH8,6.8319,4.6917,-2.1403
YAsAu,17.2983,21.4004,4.1021
P2AuSe,22.0015,21.5455,-0.456
Pu6Ga2Sb,54.7869,55.403,0.6162
FeTeAs2,35.3859,31.2366,-4.1493
La(Ag3Ge)2,28.4742,21.9579,-6.5163
BaCoAu,20.9418,19.75,-1.1917
FeTe2As,39.1017,34.5271,-4.5746
Sm3CrIn3Ge2,17.4965,18.9048,1.4083
TaCd2Ru,23.2385,26.3188,3.0803
YBeB,60.5013,51.6414,-8.8599
ZrFe2Au,36.4112,34.6457,-1.7654
Sr2Ac3Pt2,56.4066,49.8494,-6.5573
PPtI2,34.5191,26.9883,-7.5308
MoAu3,34.9341,39.3529,4.4189
SrAcPt,55.1729,47.2488,-7.924
YAsAu3,33.947,34.4413,0.4943
SrAc2Pt,57.4138,52.4981,-4.9157
Re2TeBr,34.5587,35.8791,1.3204
NaCrAs2,10.5651,11.6367,1.0716
CdPb,35.9437,37.474,1.5304
TlAg2Pt,50.8537,40.3761,-10.4776
Th2RuO,42.2939,43.972,1.6781
HfGaTc,56.937,46.3301,-10.6069
Li2AcOsO6,22.2355,22.2786,0.0431
LaBe2In,17.8966,15.7268,-2.1698
Pm(Dy5Th2)2,37.8988,39.6354,1.7366
DyCu4Sb,16.3704,16.3835,0.0131
Rb3Dy3SbTe8,30.2226,28.6932,-1.5294
SrSm2DyS4,37.7581,31.4784,-6.2797
PmMg2AlH8,6.9935,5.9489,-1.0445
Pu6Ge2Os,42.5564,46.7391,4.1826
Sr6TlGe2,13.6875,15.8583,2.1709
Sr6CdGe2,11.5483,12.4322,0.8839
Ba4IrI2Br,11.4798,12.8208,1.3409
Ac(ThGe3)2,27.4889,29.474,1.9852
Er6InGe2,18.3458,21.8332,3.4875
Sr6SnGe2,9.9887,11.9137,1.925
CeCd2Ag,20.617,20.9228,0.3058
MgPt4,66.1367,46.3647,-19.772
LaFeAg4,29.7781,22.6435,-7.1346
Li2ScReO6,41.0311,37.6017,-3.4295
Sr(GaRe)2,22.6481,22.2486,-0.3996
Li2ScTcO6,39.5909,35.4539,-4.137
AcH6PdPt2,25.8464,21.4003,-4.4461
TiFeAsBr2,24.0304,20.3742,-3.6562
YAs3Au,18.9358,19.8893,0.9534
CaTl2Ga3F12,10.9434,12.8848,1.9413
Ca3TbTl2F12,10.9697,13.4382,2.4685
TlReCl,32.6981,34.8897,2.1916
La2Tb3Pr2,24.913,22.0459,-2.8671
AcH7(PtRh)2,28.3351,21.9338,-6.4013
TaMnSb,60.2787,51.7123,-8.5665
Li2PuTaO6,13.6905,16.4796,2.7891
YAs3Rh,18.5187,16.4231,-2.0955
Ca2Er(Mg4Cd)3,7.2027,7.9467,0.744
Tc2TeP,51.0542,44.5887,-6.4655
TaTeBr3,22.9115,22.6306,-0.2809
AlCrRe3,28.0759,29.8628,1.7869
Pu6Ge2Pt,59.8809,58.7826,-1.0982
Ba2Li6AgPt,15.377,11.0063,-4.3708
BeAl3C,24.3036,17.4396,-6.864
Pr3NiI,3.7997,4.995,1.1953
Th6TcGe2,55.9691,57.0551,1.086
Be4TeAs,11.8576,10.8034,-1.0541
ZnRe3Sb,46.0451,38.853,-7.1921
U6Ge2Sb,52.7126,54.4837,1.7711
Ba2LiAlIn6,13.6576,13.1973,-0.4603
POsRu2,11.6869,17.9067,6.2198
Mn2AgSn2,48.9441,39.1565,-9.7875
LiNp(AgI3)2,22.9171,21.8472,-1.0699
LiAl2GeS6,35.5694,24.8293,-10.7401
GdZrP,24.1409,17.8971,-6.2438
MnCo2PtSe6,43.8297,33.5224,-10.3072
InFeAg3,25.827,19.0436,-6.7833
TcNiAg3,39.9171,31.8221,-8.0951
Na2Sn2Ru,17.5935,17.1687,-0.4248
La2Gd,44.2252,34.5829,-9.6423
LiIn2BiBr6,16.3285,17.2749,0.9464
Ce2NdGe6,13.8747,15.753,1.8783
CrFeAg2,29.6792,21.32,-8.3592
Cs2FeReO6,21.4437,20.8355,-0.6083
MoAu2Se,39.9983,39.0256,-0.9727
Sm4Ga12Ir,17.0722,16.5212,-0.5511
TaPbF2,34.0537,32.3387,-1.7149
Sm4Ga12Pt,16.4434,15.8472,-0.5962
LaGdSc2,22.8472,20.631,-2.2162
P2OsRu,7.9661,13.4599,5.4939
LiTl(InBr3)2,18.8798,19.0694,0.1896
Ba2LiAgBr6,8.6352,8.9195,0.2843
Mo2AuSe,32.0837,31.9313,-0.1524
LiAlIr2,25.1557,28.3229,3.1672
NaSnRu3,20.3482,20.7912,0.4431
LaGdSc4,17.0866,15.8637,-1.223
WBrCl2,15.0286,16.1904,1.1617
POsRu3,20.6982,22.5669,1.8686
LiAlIr2,25.1208,28.3229,3.2021
NaSn2Ru,20.4195,21.6109,1.1914
LiTb(InBr3)2,12.526,14.0424,1.5163
LiAc(ReN3)2,56.5595,50.1313,-6.4283
LiTh(ReN3)2,56.2912,50.1039,-6.1873
Ce(TmIn4)3,21.8081,23.084,1.2759
Rb2LiNpBr6,12.3324,13.7521,1.4197
Rb2LiNdBr6,8.1601,9.7403,1.5802
AgPIr2,37.018,33.688,-3.33
YAsRh,15.987,15.4935,-0.4936
NaMn3C,80.5167,63.1224,-17.3944
CsBaP,9.8755,10.887,1.0115
LiPb(NO3)2,5.9512,6.2973,0.3461
Gd2ZnFe,18.4642,19.2072,0.7429
MoI4,17.7887,18.2623,0.4736
Al(GaSb)2,18.6922,15.7915,-2.9008
AcNi4Pt,29.666,27.0921,-2.5739
OsRu3I,29.5358,27.8323,-1.7035
Sc2In3,11.9826,12.0996,0.117
AlAg2Pb,29.6601,26.9754,-2.6848
LiLaLuIn,27.3417,23.8588,-3.4829
Ac(NdGe3)2,18.2378,19.9935,1.7557
Pm2NdGe6,13.8416,15.6937,1.852
Zn2CrFe,17.2916,13.6045,-3.6871
AcNdTePt,53.8996,48.9225,-4.9771
LiSm(TlCl3)2,11.3065,13.0674,1.7609
Al2AgP,26.2399,20.8406,-5.3993
Tl4FeAg,39.9765,39.227,-0.7495
Cs2LiTeCl6,8.9057,8.8961,-0.0096
PmNd5Er4,26.6978,28.7063,2.0085
AlGe2C,26.0824,19.7855,-6.2969
BiSb2P,37.4444,33.4703,-3.9742
Cd(FeP)2,30.7339,25.9626,-4.7712
Rb2IrOsCl6,10.9211,11.3408,0.4197
Sr(NdGe3)2,12.7342,14.5771,1.8429
Mn(PRu)2,19.8463,18.6266,-1.2197
LiTm(TlI3)2,22.9536,24.7696,1.816
Sm2Ga3CuAu4,27.218,28.0464,0.8284
Ba2TaBe,13.3029,13.2261,-0.0768
CaSc2I,16.5053,12.3848,-4.1205
LiPm2Ga6Cu,7.2236,9.1427,1.9191
LiCaAg2F6,5.8439,5.9668,0.1229
YAsRh2,23.1113,20.5303,-2.581
InNiAu2,30.1036,31.81,1.7064
NaCuTe2,25.3432,25.2366,-0.1066
InNiAu2,30.137,31.81,1.673
Pd2Se2Br,24.4179,22.7138,-1.704
AlIn2Si,24.8432,21.8148,-3.0284
Co2MoAu,20.2222,22.2805,2.0583
MnAlMo2C,46.5966,34.7927,-11.8039
Ba2YB,51.0679,41.5708,-9.4971
TiVRu2,41.0408,37.6271,-3.4137
LiAlOs,19.0969,19.7317,0.6348
AlInSi2,23.6835,18.7571,-4.9264
Y2ScCuRh,30.4865,24.6026,-5.8839
Zn4GaTe2,17.7646,17.5841,-0.1805
Sn2Se2Br,29.4332,25.9852,-3.448
Cs2LiNdI6,16.5102,17.3162,0.8061
K2LiPuBr6,14.2551,15.3585,1.1035
Ce4Ge12Os,14.377,15.4551,1.0782
Ca2ZrCr,39.3361,31.948,-7.3881
CrNi2Ag,24.0159,21.0597,-2.9562
Na2LiICl6,10.3856,9.5139,-0.8717
Ca2ZrCr,39.3318,31.948,-7.3838
ErTmBi,37.7847,40.5816,2.7969
TiZn3Te,15.1227,14.8081,-0.3146
ZrScVRh,69.9704,56.6326,-13.3378
Y5P4S,36.4372,28.205,-8.2322
Be2SbSe,19.2146,16.9937,-2.2208
TaSiPd,0.0,5.992,5.992
LaTmAg,25.8643,20.5713,-5.293
AcGdPt4,74.2753,57.6292,-16.6461
Tc2PdPt,73.6266,59.6749,-13.9517
Cu(NiAg)2,12.7901,12.0884,-0.7017
Ac2CePt,60.6753,55.15,-5.5252
TeAu4,46.4326,47.4132,0.9806
NaCuSnTe3,41.0222,36.4857,-4.5365
LiMn(TlBr3)2,29.9495,27.5019,-2.4475
LiPm2MnGe6,14.986,14.8488,-0.1372
Ag(TeAu)2,39.1822,37.4879,-1.6944
LiMn(GeSe3)2,35.9518,28.5464,-7.4054
LiAc2MnGe6,22.9697,22.4781,-0.4916
LiCe2MnGe6,14.6913,14.6351,-0.0562
LiLa2MnGe6,20.16,16.2064,-3.9536
BeSbSe2,35.5262,28.9622,-6.5639
Na2LiBiBr6,19.8953,19.199,-0.6963
Cr2N,0.0,0.0,0.0
NaZrCu3,29.5606,25.1105,-4.4501
Hf2Pb2Au,82.3969,67.0357,-15.3612
SmGa2PbAu5,36.4109,37.6769,1.266
CrGaF,6.2808,5.3603,-0.9205
Pr5TlGa2,5.8881,5.8065,-0.0817
Sm2NiAuC,32.3226,30.1762,-2.1464
BaInPt2,44.1752,32.1751,-12.0002
Rb2GaGe2,5.9451,4.6275,-1.3176
Na(CuTe)3,20.8543,19.87,-0.9844
RbBa2Nb,34.2786,28.8776,-5.4011
Na(SnMo)2,38.8669,27.8915,-10.9755
ScCrCd2,21.1682,18.9446,-2.2236
Y2CrSiO6,19.5092,17.428,-2.0812
Ca2TeRhC,31.8111,25.0773,-6.7339
Na2SbOs,30.7819,28.6665,-2.1154
Gd2PI2,27.6088,25.2078,-2.401
CrCdI2,18.8126,18.7529,-0.0597
Sr(CdI3)2,18.9245,18.8495,-0.0749
YCuRu2,26.329,23.9049,-2.4242
Sm2MnCu,39.0812,34.9682,-4.113
CsBa2WO6,1.0703,3.9224,2.8522
SrY3Ru,19.8821,16.7602,-3.122
Na2MnAuBr6,26.1881,25.2057,-0.9824
CeYRu,16.7665,14.3105,-2.456
AcPtN,44.0556,41.7247,-2.3309
SbAsPd5,4.9591,6.8053,1.8462
TbTmAgOs,32.2923,33.7764,1.4841
LiCeNd2O6,4.8981,6.5465,1.6485
NiAs2WSe,43.0371,37.8857,-5.1514
YMnNiI2,69.7976,58.7263,-11.0713
Ac(PtO4)2,22.3346,18.3529,-3.9817
ZrGe2Pb,37.6678,36.473,-1.1948
ThNpOs2,54.8526,59.5184,4.6658
InIrSe,37.2278,36.8005,-0.4273
LiPm2CuO6,4.0114,6.2841,2.2728
CrSbRu,23.5154,21.9735,-1.5419
Ac2Tl(Cd4Ag)3,27.9975,27.0774,-0.9201
Na2Sb2Os,31.7076,27.4407,-4.2669
LaCoBr,30.848,22.2815,-8.5666
AsRh2C,43.0388,31.8173,-11.2216
Y5CuRu4,26.2216,19.7387,-6.483
Ca2P2Os,26.7547,23.5792,-3.1755
Ca3POs,23.2287,21.0914,-2.1373
BaIn3Cl,12.529,13.1967,0.6677
LiAlSe,20.8649,17.077,-3.7879
LiNd2GeO6,3.3756,5.8882,2.5126
PrLuHfTh,59.8384,51.8784,-7.96
LiAlRu,10.6933,11.3592,0.6658
NiBi2Sb,44.9736,41.6276,-3.3461
Na4TeIr2,33.1186,30.4436,-2.675
Ca2FeC,27.9275,23.5851,-4.3424
CaLaPr,18.3494,13.5834,-4.766
Zn3SnIr,20.8874,19.0913,-1.7961
SrY3Ru,20.0541,16.7602,-3.2939
LaCeGdSc,27.9208,26.0757,-1.8451
YRu,0.0,2.1988,2.1988
NaPmZnSe3,28.046,24.4256,-3.6204
Ca2CuOsO6,22.3439,21.7747,-0.5692
Li2CaDyF8,5.7057,7.2129,1.5073
Sr3YRu,18.1753,15.623,-2.5523
SrLa3Re,48.4362,33.2105,-15.2257
Cs2AlI,18.7344,17.921,-0.8134
LiMgNpO5,15.2624,17.3432,2.0808
CaLa4In,38.7082,27.6035,-11.1047
Er4TlPbO,25.3039,27.8858,2.5819
SrY3Ru,13.4877,16.7602,3.2725
SrY3Ru,14.2816,16.7602,2.4786
LiHfMn2O6,75.8919,64.2007,-11.6912
CoPbW2,37.276,39.9685,2.6925
Ca2Tb(PPt4)3,67.8856,48.5413,-19.3444
Tb6YSc2,15.4492,18.3908,2.9415
CaLaIn,21.6708,18.7326,-2.9382
YCuRu,8.9673,9.3339,0.3666
KLaTa2,29.6816,29.3774,-0.3042
POsC,29.0319,26.2321,-2.7998
Ca2OsRu,17.6546,19.8852,2.2306
KSrIrO4,25.319,22.0492,-3.2698
K2Rb(NaBi)2,26.0348,24.7059,-1.3289
Zn2As2Ru,10.2699,8.5955,-1.6743
PbAu,49.9104,52.7891,2.8787
CaOsRu,21.7816,20.248,-1.5336
CsReSi2,17.952,17.449,-0.5029
Tb3DySb2C,35.9992,31.5284,-4.4708
Ta2AsPb,34.1925,37.238,3.0455
InAsP2,18.4802,17.2063,-1.2739
Sc5Cd(InRh)2,12.8766,11.713,-1.1635
LiAlRu,10.2444,11.3592,1.1148
In2AsP,22.3101,20.5904,-1.7197
Tb2Pr(AlAg)2,16.953,16.3455,-0.6075
CsAlV3,85.1791,67.146,-18.0331
TaBiAs,14.1247,20.3547,6.23
TaAsPb,33.1605,37.1807,4.0203
TaBiAs3,24.6334,25.6534,1.02
ScCrCu,28.0368,22.0655,-5.9713
LiTc(RuO3)2,23.5023,20.1588,-3.3435
LiLa2TeO6,25.3551,23.9906,-1.3645
PrCrIn2,5.7341,7.9525,2.2184
LiTe(PbO3)2,15.9129,16.5302,0.6173
Sc2Cr2Cu,19.1632,14.4559,-4.7073
LiAlRu,10.2133,11.3592,1.1459