Formula,E_hull_DFT (eV/atom),E_hull_ML (eV/atom),Delta (ML - DFT)
Ta2Nb3Al2,63.8638,56.3095,-7.5543
Pa2Tl2O7,11.8869,14.4559,2.569
Cd7Bi,23.6486,24.5582,0.9096
PrSbF,8.6366,8.6471,0.0105
PrCuSi3,28.4142,21.8638,-6.5504
AlTlOs2,34.8124,37.8877,3.0753
PuZrZn17,15.6637,15.5274,-0.1362
Sr2Tl2I,27.366,29.4454,2.0794
CeCd7,19.8662,20.7772,0.911
AcDyO4,13.1312,15.1299,1.9987
Pr2Nd7Dy2,15.2002,19.0652,3.865
Rb2SrV,35.2328,28.0394,-7.1934
ZrPaZn17,15.4383,15.2992,-0.1391
LaTa2As,33.7922,32.6622,-1.13
ZrNpZn17,15.607,15.4669,-0.14
LaY6Er5,23.4931,23.6774,0.1843
Sr(CuBr3)2,10.5478,9.6163,-0.9315
LaTa2As,34.0035,32.6622,-1.3413
Hf2Sc3Al2,44.8533,33.4383,-11.415
Er2Tm2Pb,29.7879,32.9941,3.2062
Al2TlOs,24.9929,27.3302,2.3373
ScTcRhO2,80.0722,66.3608,-13.7114
Pm4Pr3,12.2226,14.3725,2.1498
Zr2Sc3Al2,31.8351,27.812,-4.0232
MnVCo2,60.7739,48.9574,-11.8165
BaSb2W,26.7735,24.135,-2.6386
FeHgAs2,20.6533,17.8957,-2.7576
Y3Er3In2,22.2235,22.6133,0.3898
SrAlIr,9.5454,10.6894,1.144
Pa2Zn2O7,22.1434,19.2549,-2.8885
NaSrSc2,9.4401,11.025,1.5849
Co2AsOs2,28.8787,27.5683,-1.3104
RbNa2IrPb,29.8519,28.2824,-1.5695
ScCo2As,19.4053,16.3457,-3.0596
CoAs3Os,20.0964,19.3003,-0.7961
Zn2TePt,36.6691,29.8868,-6.7823
Pr(Ga2Au)6,20.2564,20.6663,0.4099
Zn2TePt,36.7438,29.8868,-6.857
SiPtBr3,30.1588,21.7525,-8.4062
ZrSc5Al2In,12.0806,11.9846,-0.096
SrTc2W,61.5162,48.1555,-13.3607
TlAs2PbBr,33.4692,30.6267,-2.8425
Sm(Y2Er3)2,23.6343,25.5109,1.8766
YSbRh,15.3695,13.326,-2.0435
Pm2CuIr2,28.0949,31.3702,3.2753
KSbPb2,40.4589,38.6713,-1.7876
Cu(IrRh)2,31.1628,29.8821,-1.2807
ZnTe2Ir,38.0879,34.1245,-3.9634
CaMnCrP2,52.8796,41.2139,-11.6657
Sr2TcF2,25.7429,20.9513,-4.7917
Si3NiPt,21.6647,14.766,-6.8987
Pr12Tl5Zn2,10.9863,12.236,1.2497
Pa(BrF)2,13.4847,17.1554,3.6707
NaThPb2,48.7837,49.6783,0.8947
UAlO4,0.7861,6.8985,6.1124
LaYEr4,30.755,29.4257,-1.3294
CdCo3O,10.6848,11.0296,0.3448
ScBi3Au,43.6659,44.7596,1.0937
Sm2Ho2Cu,22.6006,25.447,2.8463
BaNaLa2Os,34.0151,26.6948,-7.3203
ScCo2As,19.5628,16.3457,-3.2171
Sm2Dy2Cu,22.235,25.0903,2.8553
TaMnRu2,41.8483,40.0134,-1.8349
BeNiTe2,22.9394,23.5866,0.6472
SrSi2Cl,19.2219,15.3194,-3.9025
AgSb2Br,37.9501,31.9228,-6.0273
Ba2SrHf,37.1119,28.4105,-8.7014
Y(ErTm2)3,24.1372,27.3542,3.217
Ta2MnRu,46.9864,45.9218,-1.0646
Cd2HgSb2,23.7424,20.9336,-2.8088
ScCo2As,19.2509,16.3457,-2.9052
SrCaTb,17.4967,17.1418,-0.3549
SrCrPb2,33.913,33.1292,-0.7838
Li3CBr,22.7848,17.6475,-5.1372
Ta2MnRu,47.2092,45.9218,-1.2874
CsBaTa,17.2638,20.2947,3.0309
La(Cr2Bi)2,30.3752,27.5326,-2.8426
Tl2RuAu,38.2694,40.8114,2.542
K5Sb2F12,11.2362,10.6719,-0.5643
GaRuRh3,44.2878,32.7415,-11.5463
EuAlGaCu,12.9846,13.4884,0.5037
TbY2Er5Tm,21.0743,23.6426,2.5683
UTa2(AgS3)2,48.8191,38.9122,-9.9069
AlTl2Tc,51.4034,46.8086,-4.5948
CaMn2Ni,78.3139,64.0671,-14.2468
NaSrSn6,20.0764,20.6399,0.5635
MnSbSe2,55.4247,42.8575,-12.5672
AlTl2Tc,51.2224,46.8086,-4.4138
Bi2Te2Au,44.8236,44.6287,-0.1949
Bi3TeAu,51.6057,51.3053,-0.3005
AlTlTc2,61.5093,53.2941,-8.2152
TlZn2Tc,36.9893,35.023,-1.9663
NbBRh,60.7955,53.664,-7.1315
Cr(WN2)2,18.2709,18.2089,-0.062
LaW2I,31.8691,31.9068,0.0377
Sr2Cr2In3,17.3473,15.4699,-1.8774
GdGePt4,65.4637,48.3004,-17.1634
AcSbAs2Pd5,24.3593,24.1072,-0.2521
FeBi2Au,39.5665,41.3257,1.7592
CaMo2P,23.5855,21.8881,-1.6974
Sr2HfZr,68.1947,51.252,-16.9427
Y4Er3Sc,18.738,20.86,2.122
ZnSb2Pb,37.6778,33.5572,-4.1206
TbCoTe,19.6401,22.5495,2.9094
SrBeCr2,13.5774,8.8794,-4.6979
ErPuZr,58.2233,54.7362,-3.4871
LuNbB2,43.9121,41.0067,-2.9054
LiScS2Cl,37.5812,29.7036,-7.8776
LaMnI3,43.716,35.2417,-8.4743
SrBeCr2,13.3023,8.8794,-4.4228
NbB3Rh,43.9333,36.8114,-7.1219
AlCuC,19.9501,15.6488,-4.3013
POsN2,41.3899,34.098,-7.2918
Nd12YEr7,25.9985,27.6437,1.6453
Sr2CrAg,19.1778,16.0647,-3.1132
Ba10Er5Cu15O34,3.1199,3.5771,0.4571
TbScSn,27.694,24.3182,-3.3758
BaNaErSi4NiO12,6.6321,5.581,-1.0512
KBaEr(SiO3)3,0.0,0.0,0.0
Nd5Sb4,32.6692,29.508,-3.1612
LaBe2Sb,24.1127,19.2417,-4.871
EuScGaPb,23.1982,25.594,2.3959
TbY4Er3,21.2668,23.7391,2.4723
YAlRe2,39.6508,37.0957,-2.5552
ZnSb2Pb,37.7011,33.5572,-4.144
GdZnSb2,31.3577,27.7501,-3.6076
Y8Er2Tm,18.6665,20.0597,1.3932
Pa2Sn2O7,40.1178,34.633,-5.4848
Li2SbTe,21.5238,19.1782,-2.3456
K2UCl5,0.0,2.1789,2.1789
Cu2S2O7,5.6734,5.7913,0.1179
SmThZn17,11.3956,12.33,0.9345
InReAgPb2,40.8797,39.8814,-0.9983
La2Be2Pb,26.7967,22.6406,-4.1561
NiW5,34.8287,38.9994,4.1708
Ti2SbSe2,23.5036,20.2173,-3.2863
Tm2TiS4,40.1834,32.4597,-7.7236
BaEuPb,26.5246,28.2689,1.7443
SiAgRu2,26.3203,20.6817,-5.6385
TlNiO3,13.4238,14.04,0.6162
ScNbW3,54.7213,52.3293,-2.392
Hf2IrRuPt,91.3798,66.0454,-25.3344
Zr2Zn2Cu,43.6516,38.3769,-5.2747
CdTe2Ir,37.1854,37.2374,0.052
Ge2AsSe2,32.4333,29.0681,-3.3651
CdTe2Ir,36.8552,37.2374,0.3821
NdZrZn17,13.1167,12.9432,-0.1735
Al2CuAu,15.9264,16.7978,0.8714
PmZrZn17,13.1238,12.9502,-0.1736
Ac6LaPr2,47.7684,48.1971,0.4286
ScCoAs2,24.6388,18.3196,-6.3192
TaGePbS2,44.003,37.845,-6.158
PrSm6Tm,22.014,23.7184,1.7044
K3Pa5Se12,29.0416,27.081,-1.9606
CeAlAs2Rh5,37.562,28.0912,-9.4708
Al2AgSb,20.7054,18.3196,-2.3858
V2ZnBi2,70.1307,59.9409,-10.1898
AlAgSb2,31.1991,25.3005,-5.8987
V2Zn,88.4768,70.355,-18.1218
VZn5,27.8386,23.9532,-3.8854
Al4Cu2Au5,24.4409,24.8708,0.4298
Hf8Tl,133.4237,95.2361,-38.1877
NaSrAgGe,19.7391,17.6543,-2.0848
Ac7(PrSm)2,45.0522,46.2104,1.1582
Pm7(PrTh)2,27.0954,29.1967,2.1013
KFe2AgW,44.563,34.1867,-10.3763
SrSiAg3,33.0885,23.4948,-9.5937
NaInSn4,17.7521,17.8302,0.0781
MnCd3I,36.3311,31.704,-4.6271
Na(InSn)2,21.1241,20.9539,-0.1703
Cu(BiIr)2,35.454,38.9529,3.4988
Na2SrInSn2,17.483,17.2184,-0.2646
Zr2IrRu,67.6809,57.9605,-9.7204
Pr3Tl3Hg2,17.2302,18.2896,1.0594
AcP2ClO6,5.5926,4.6894,-0.9033
ScAuI2,20.2861,23.3933,3.1072
SrPd5Pb2,25.5839,27.3154,1.7315
Na(In4Sn)2,20.512,20.6606,0.1487
PrTiRu2,21.7335,22.6058,0.8723
TmTaAl4,12.9018,15.7837,2.8819
TaMn,15.8359,24.2466,8.4107
AlSbOs2,33.0689,34.366,1.2971
NaSrInSn2,19.5533,19.7196,0.1663
ZrScAs3,36.9626,29.7184,-7.2441
AlSb2Os,33.8013,30.8553,-2.946
CsCa(AsO3)2,6.7665,7.1894,0.4229
ZrScAs,54.2125,43.3343,-10.8782
ZrSc2As,34.8751,28.8411,-6.034
Al2V3Tc2,83.6324,66.0925,-17.5399
NaTa2Tl,33.3176,36.6817,3.3641
Zr2ScAs,65.3627,52.5521,-12.8106
TaSb2S,41.1144,34.3865,-6.7279
FeRh2W,35.8179,29.5603,-6.2576
CaCu,0.93,0.2651,-0.665
Sm5YEr5,26.2751,27.7538,1.4787
Sm3Y(ErSe3)2,34.6364,31.199,-3.4374
Ca2CrCu,14.446,11.0308,-3.4152
Ga2Pt2Au,43.4009,34.7839,-8.617
Tl2Hg2S,29.4345,27.2966,-2.1379
LiCuW2,21.4257,25.1411,3.7154
Na2As2Pb3,32.2982,31.394,-0.9042
Rb4YEr3O8,9.4019,10.8713,1.4694
NaAsPb2,34.9328,35.011,0.0781
La5Cu,44.2482,31.5798,-12.6684
Ce2Er2Al3,16.5176,18.9576,2.44
Pr3Sm3Tl2,20.0875,21.7528,1.6654
NaLaNd2,31.5045,27.8831,-3.6214
Tc3AgC,74.4316,59.3431,-15.0886
Pr2(ErTh)3,34.7528,37.1795,2.4267
Dy2Ho2Al3,16.914,19.6171,2.7031
Ac3Pr3Tm2,30.1787,31.5256,1.3469
Y2ErSn,30.1231,27.1004,-3.0227
Ba2SbMo,12.4329,12.3481,-0.0849
Sr3InOs,20.7575,21.7888,1.0313
Nb3BIr,93.7227,80.0608,-13.6619
Pr3Sm3Th2,24.2144,26.1545,1.9402
La6AlSb2,44.0892,30.6361,-13.4531
K12Au5O2,19.6647,19.3002,-0.3645
InOsO2,23.424,23.8804,0.4565
Ba2Sr4Zn,8.8936,9.9426,1.0489
Ti2Al3Cr2,18.4894,18.4992,0.0099
EuGaPb2,35.2271,36.9272,1.7001
Sc3(MnGa3)2,7.0565,6.4013,-0.6552
Nd2Ho2Al3,16.6143,18.8221,2.2078
Ho2Tm2Al3,17.8443,20.5736,2.7293
BaEu2Ga,18.3296,18.0588,-0.2708
Sc2Nb2Al3,44.0503,37.6053,-6.445
YErSn2,31.2325,27.8537,-3.3788
Ca2MnCr,39.6036,30.2929,-9.3106
FeSi2Br,12.1276,8.2818,-3.8457
Ca6MgAl,4.4501,5.749,1.2988
Dy3AlGa2,16.4733,18.9746,2.5013
LaMnCr4,32.9455,26.481,-6.4645
LaZn3Si,17.9548,14.2797,-3.6752
CeZn3Si,12.6742,12.7666,0.0924
CaMnCr4,30.1478,23.7348,-6.4131
Nd2Tm2Al3,17.2836,19.5006,2.217
BaZn3Si,5.489,5.6955,0.2065
NiAg,5.3703,5.167,-0.2033
V3Si,91.5741,71.871,-19.7031
YErB4,38.1337,33.7552,-4.3785
ReIO4,27.2539,23.4625,-3.7914
Sm3Ti5S12,17.6644,11.0202,-6.6442
AlCd2Sb,21.7079,20.3706,-1.3373
Hf2Sb,101.9289,73.0145,-28.9144
AlCdSb2,28.1125,23.7274,-4.385
NaCo2Cu,27.3977,21.9376,-5.4601
PrTmGe3,4.9369,7.9941,3.0572
CrCuTeN2,20.312,18.2651,-2.0469
Pm2Sc2Al3,11.3884,11.9915,0.6031
KGe2Bi,18.0928,20.7204,2.6276
KRbEu,14.2328,14.0127,-0.2201
DyTeRh,38.8453,34.5005,-4.3448
Tm2Sc2Al3,12.3248,14.0442,1.7194
Sc2Ti2Al3,5.7885,6.5253,0.7368
NdThSi3,20.0006,19.8479,-0.1527
TiCr2I,23.8711,22.3482,-1.5229
NaVNi,48.3046,39.8523,-8.4523
Rb3Tl2Sn3,18.636,19.2657,0.6298
ScReCl3,29.4285,23.6658,-5.7628
Tl2NiPb,40.5509,41.9596,1.4086
ScRePb3,58.8429,52.2378,-6.6051
TbTm(ScS2)2,44.5156,38.7997,-5.7159
AgI4,22.7063,21.7371,-0.9692
Sm2Te2F,31.858,32.3099,0.4518
LaY5Er6,24.786,25.2474,0.4614
TlAsRh,36.7126,32.8339,-3.8786
CeScF4,2.8431,3.0934,0.2503
CrAs3,6.6823,5.5396,-1.1428
La5YEr,38.254,28.1899,-10.0641
TlAsRh,36.6777,32.8339,-3.8438
Na2InAg,25.0652,20.7535,-4.3117
BaLaPb,34.4665,30.7908,-3.6757
Tl3AsRh,43.2447,40.3473,-2.8974
Ba2GdTeO6,6.0773,7.5062,1.4289
PmY3Er5,19.0839,22.5141,3.4303
KBPt3,40.0179,28.6162,-11.4017
Sn3HgI,17.7721,17.9976,0.2255
Pr3Zr5S12,35.8654,24.3541,-11.5113
Cd2SbMo,21.7515,22.1306,0.3791
Na2Be3InAu12,35.362,35.9881,0.6261
Cu3Sb2,18.2617,17.0573,-1.2044
Ba2Al3Zn2,13.892,10.3256,-3.5664
Na2Be3CuAu12,36.7813,36.3054,-0.4758
Hg2GePt,21.9088,18.2663,-3.6425
LiCu3W,12.7074,14.4063,1.6989
Na2Be3GeAu12,34.7866,35.5457,0.7592
La3NiB,32.6981,22.9668,-9.7313
SrZrTe2,48.0888,44.7575,-3.3313
SmThSi3,20.055,19.9182,-0.1368
CsNaV2O6,23.0065,17.5246,-5.4819
SrZrTe2,47.9968,44.7575,-3.2393
La2TaVPb,74.2672,58.601,-15.6662
Na2Nd(ZrSe3)2,49.4539,40.221,-9.2328
Y4SiPb,30.8689,29.0834,-1.7856
TlSiIr2,38.5011,39.1292,0.6281
KLaScPb2,35.0057,32.3271,-2.6786
CsPm(SiO3)2,0.0,0.0,-0.0
Ba2LaPb2,27.3565,26.1444,-1.2122
La2TaPbBr,46.9381,37.4679,-9.4702
Ca(SbAs)2,19.8534,15.9322,-3.9212
HgP2ClO6,4.1785,1.3603,-2.8182
BaLaPb2,39.0467,36.3137,-2.733
LaVPb2,71.4207,61.3031,-10.1176
PmP2ClO6,1.6133,0.9336,-0.6798
Y2Er2Th5,46.3499,49.0083,2.6585
LaPbW3,46.3295,45.1838,-1.1457
LaEuPb,43.7874,39.7388,-4.0486
SrCa3Pd,7.9112,8.8849,0.9737
NdIn5Ni,18.2626,19.6873,1.4247
Y4TaSi,40.652,34.335,-6.3169
BaSrPr,3.0771,4.8325,1.7554
LaPbW2,46.4219,45.1576,-1.2643
YEr2TmIn4,19.2618,20.5831,1.3213
ZrNbB2,53.2889,47.4917,-5.7972
Sc2Al2Ir3,29.706,24.0341,-5.6719
LaScTe2,36.2964,31.702,-4.5944
TiNbSb2,58.9311,48.6586,-10.2725
Tm2Sc3Al2,12.4612,14.5259,2.0647
Tl2SiIr,40.6839,40.6507,-0.0332
PbAu3Br,47.8748,44.9397,-2.9351
Pr12SmSn6,4.4645,5.7235,1.259
Ta2PtPbI,49.7469,44.8813,-4.8656
Y2ErCo2,44.4673,37.1128,-7.3545
BeCdSb,22.9398,19.3862,-3.5536
KAuCl4,3.2305,6.1673,2.9368
La2InBr,32.8559,25.7664,-7.0895
In2IrC,32.1767,30.7219,-1.4548
TlSi2Ir,31.1156,29.3478,-1.7678
Y3Er3Sc2,17.7121,19.1601,1.448
CaAc2Er,40.9522,42.7709,1.8187
Hf2Co2I,57.2953,43.4607,-13.8346
Al2ZnFe,5.2191,5.6306,0.4116
Cu(SiIr)2,18.1911,19.8522,1.6611
LaMo4Pb,27.9575,28.2422,0.2848
TaHg2I,15.9146,16.7518,0.8372
LuBeRh2,32.2984,26.7189,-5.5795
Cs3TcI,38.2572,34.4517,-3.8056
IrIBr2,23.7457,24.246,0.5003
GaBiSb3,40.4274,34.066,-6.3614
FeAuSe2,36.1361,32.5786,-3.5575
Be2Tl2Se3,34.6392,31.9939,-2.6454
SiAgRu3,29.2346,21.4275,-7.8071
Ta2FePb,34.4365,35.9909,1.5545
Cs3AuF,22.0514,22.8723,0.8208
TbPm3Bi4,39.0075,41.1767,2.1692
CoCu2Ir,31.6862,28.2831,-3.4031
La2PbW,48.8213,42.3902,-6.4311
LaPbW,48.2867,45.0046,-3.2821
La2SbPb,49.4421,39.3928,-10.0494
Al3(VMo)2,47.9078,38.0115,-9.8963
Ru2Pt7Rh2,77.0149,54.0507,-22.9642
ZnReHg,31.838,22.2902,-9.5479
PrSm4N5,11.3931,13.8115,2.4184
La2ScPb,40.0557,33.241,-6.8147
CsTc3I,67.1865,56.1876,-10.9989
La2GdPb,46.0968,39.4313,-6.6655
Tb4InHg2Rh,21.2719,21.1357,-0.1363
Hf2FePb,80.0827,61.303,-18.7797
YEr2IO8,18.4362,17.5585,-0.8776
K2H2Pd,10.8924,9.9786,-0.9138
Ru2Pt2Rh7,58.7602,42.0191,-16.7411
LaTa3Pb,45.0298,42.8901,-2.1397
Y2ErCd3,18.7635,20.7414,1.9779
Y2Er3PuS6,42.0943,36.2008,-5.8934
Cs7(AuF)2,24.6956,25.1485,0.4529
SrZrMo,36.1364,35.0948,-1.0416
Pr4InPb3,20.7559,21.1868,0.4308
LaOsO4,16.7459,17.1747,0.4287
SrLa2Pb,38.4201,33.469,-4.9511
CsCu2Rh,18.8656,16.4905,-2.3751
Co2CuRh,32.8199,25.3336,-7.4863
HgP2SeS,24.4258,22.4786,-1.9472
Tb2CeFe2,9.1476,13.8573,4.7097
Cs2RhAuF6,18.2121,16.9198,-1.2923
CrSnRu,7.8358,11.8842,4.0484
FeRuI2,29.7322,23.6647,-6.0676
LaBeAl2,25.7983,18.5431,-7.2551
Pm3TmSb2C,35.6905,31.2108,-4.4798
TiVSn2,47.0045,37.9696,-9.0349
ScGaPb2,29.5012,31.0143,1.5131
Fe2Co2Ir,28.0559,23.3313,-4.7246
NaCrB,0.0,0.0,0.0
Sn2BiAs2,23.3848,24.4998,1.115
SiGeAs3,14.5273,13.2598,-1.2675
Be2Al2Ir3,31.8024,29.6523,-2.1501
La3SiGe,29.5477,20.0042,-9.5435
Ce2Y3Er6Sc,22.7714,24.4169,1.6456
TaGa2,39.3629,34.3079,-5.0551
LiYErAg,18.6366,18.2833,-0.3533
Li2CoTe,12.5527,12.5243,-0.0284
InSiTe3,28.2745,27.8546,-0.4199
TaSi2Ir,27.2699,29.0618,1.7919
YErTcAg,76.5529,64.7645,-11.7884
YErAgPb,31.3855,31.9001,0.5145
ErZnSe3,31.2079,26.7722,-4.4356
Ta2SiIr,32.6759,35.0024,2.3265
Nd3Ti,20.0009,22.4371,2.4363
Al2Ag2Sb,22.8368,18.5051,-4.3317
Fe2CoPd2,18.0501,17.1024,-0.9478
DySc3,10.67,13.1158,2.4458
BaAg2HgH,13.1854,9.8957,-3.2897
Li3YNb,32.3635,27.7454,-4.6181
VCuPS2,54.5143,42.2203,-12.294
NaSrIn,17.0602,17.4257,0.3654
H3NO,0.0,0.0,0.0
HIO4,11.5486,11.3178,-0.2308
LiTiRh,17.85,14.9546,-2.8953
InAgP2S,24.5836,22.9871,-1.5965
Pm2BiPb,38.6159,40.6544,2.0385
Na(HfSi)2,61.4303,43.3766,-18.0537
YEr2Re,28.9199,32.4959,3.576
YRe4Si,41.7738,42.1248,0.351
Tb2ZrRh4,49.1738,38.6998,-10.474
HfTlAu,75.1699,64.005,-11.1649
Na3TiS4,40.1546,30.6872,-9.4675
Re2(OsRh)3,44.2681,41.1909,-3.0773
Si3NiRh,20.4278,13.7426,-6.6852
LiTlPb,26.2672,29.8785,3.6113
Tl2Se2S7,54.2155,42.7351,-11.4804
Li2YCd,8.4849,9.7806,1.2957
Sr2U2S7,49.6149,41.3465,-8.2684
WSeI2,17.5167,18.439,0.9223
Bi2Pb2Au3,50.8515,51.9757,1.1242
ZnOs2Pt,45.4276,41.824,-3.6036
Tl2Pb2Au3,49.7567,50.9223,1.1656
CaSbRh3,41.7973,29.4525,-12.3449
Ta2Cr,50.4534,43.7216,-6.7318
TaCr,44.7681,27.9784,-16.7896
U(FeGe)2,17.3349,20.4553,3.1204
Re3(TcB)2,43.5758,42.0624,-1.5134
Th(GeRu)3,13.5371,16.7964,3.2592
Ru2(PtRh)3,67.3491,47.8925,-19.4566
YWF2,28.1704,23.0094,-5.1609
Na3Ir(BrF3)2,15.15,14.4139,-0.7361
CsBa(PO3)2,6.4354,4.6531,-1.7823
KZrRu2,30.751,28.7076,-2.0434
Re2Tc3B2,51.1131,46.7779,-4.3351
Sc2RhAuC,32.772,27.3296,-5.4424
Ac4YEr3Bi8,48.9134,50.5313,1.6179
ScTiS2,32.4566,28.8327,-3.6238
InOs2Pt,48.7077,44.7004,-4.0072
SiIrN2,10.4932,10.5842,0.091
HfSiBr3,38.6959,28.1324,-10.5635
Pu2UPb,66.4545,68.5842,2.1297
MnNb2Sn,93.2191,79.0881,-14.1311
Na(HfSi)2,61.4106,43.3766,-18.034
Hg4Mo5,3.7738,6.8804,3.1066
U3Se3S2,48.9965,43.438,-5.5585
AcSbAs2Rh5,41.0478,32.517,-8.5308
ErSiS3,25.2067,17.8413,-7.3654
CdGa2Ag,16.9292,16.0987,-0.8305
ZnSbPd2,18.8355,18.953,0.1175
Pu3SiOs,42.3119,44.5647,2.2528
SiNi3P,10.7377,8.6705,-2.0672
SmAs2Rh5Pb,37.7411,30.3692,-7.3719
HfTiS4,61.2588,45.2921,-15.9667
HfGeBi,62.4733,51.476,-10.9973
Sc2ReGe2,34.5758,25.0199,-9.5559
Nb(FePt)2,64.6056,50.7593,-13.8464
Fe2Ni2Ir,46.5763,37.5637,-9.0125
MoOsO4,0.0,1.8802,1.8802
Fe2Ni2W,45.6079,37.0313,-8.5766
Fe2Pd2Au,16.5603,18.9744,2.4141
TmScGaRh,22.5677,21.8351,-0.7326
Ac4Sb2PS,49.9743,49.0331,-0.9411
Ir3Os2Ru3,39.6873,36.1532,-3.5342
LiMo2,10.7229,14.4661,3.7432
NaHfPAu2,53.8518,44.5789,-9.273
La3HfBi,70.9068,52.0047,-18.902
Na2SnAsI,20.4614,18.8575,-1.6039
Ba3Li2(InAu2)2,21.8121,22.2465,0.4344
Sr2CaOs,17.2065,18.5395,1.333
Be2SnMoBr,23.6147,17.7184,-5.8963
LiScPb,10.6606,14.8604,4.1998
Li7YCd4,7.7896,8.6488,0.8592
BeHg2Sb,11.5709,9.705,-1.8659
PrSiAu3,29.8113,30.1344,0.3231
Pr2TlFe2,20.0377,17.488,-2.5496
ZnMoBr2,11.9863,12.6946,0.7083
Cs2K2Rb2Ag,15.4156,13.8716,-1.544
NdSmEuAl,20.4597,22.8283,2.3686
PrSmF,8.2917,10.3833,2.0916
Na3Ni2OsO6,14.0675,12.9408,-1.1266
SmSbRu,21.6388,23.1384,1.4996
La4Sn3Se8,42.3138,33.3932,-8.9206
CaFe2Ni,40.805,30.5328,-10.2721
TiIn2WS,29.2652,26.7764,-2.4888
LiMo3,11.8216,15.8504,4.0289
Sc2TcBr,66.9589,54.9963,-11.9625
NaEr(ReO5)4,11.9121,11.4461,-0.466
SrAuCl2,24.5536,23.6414,-0.9122
SnPC,30.3131,23.5611,-6.752
CaFeNi,33.4823,26.6752,-6.8072
Tm2Be2Ga3,10.3552,11.5995,1.2442
CeMg2(H4Au)3,10.7814,11.1749,0.3935
PaTaAs2Ru5,25.4324,25.2377,-0.1947
ScTcBr,86.6914,71.3432,-15.3482
Be2Nb3Ge2,62.9284,53.7817,-9.1467
SnCO2,69.1091,52.5205,-16.5886
ZnCd2Ru,15.809,17.4317,1.6228
YErTcNi,72.0079,63.3304,-8.6776
SiSn2C,26.9779,20.8492,-6.1287
Th7(OsPb)2,58.9366,61.9949,3.0583
SrInSnBi,26.7665,28.1119,1.3454
Hg3PtBr,21.6235,15.4546,-6.1689
Sc4SeI5,17.2142,17.8168,0.6026
Cu2AgIr2,21.3759,24.3743,2.9983
Sr2Al3Pt2,30.2075,23.0043,-7.2032
Ti7SiGe3,8.313,8.1618,-0.1512
Zr5NiSb3,64.1668,52.2629,-11.9039
SmEuRu4,19.5808,22.7213,3.1405
Ti2FeS,18.5737,15.3951,-3.1787
Ag7(PdPt)2,39.5258,29.9653,-9.5605
K12AgHg6,9.0083,7.8525,-1.1558
CeSbAs2Ru5,21.0736,20.2781,-0.7956
Tb2PrY6,9.2083,12.2181,3.0098
CeYEr,7.7248,14.3856,6.6608
NbSiPtPb2,71.2051,59.1517,-12.0534
Y6TlPt2,27.4218,23.7796,-3.6422
NpSnAs2Ru5,23.4684,23.4403,-0.028
U(CdP)2,22.5773,25.0016,2.4243
ScTc2Br,88.3103,73.4903,-14.82
TiSnS2,25.5953,15.8507,-9.7446
Th2InP,38.0768,41.9763,3.8995
Bi4Au5,50.5781,51.8096,1.2315
Li2SmPb,19.3786,21.0231,1.6445
Ca2NiPd2,8.7822,9.2046,0.4224
Yb2C,43.5585,39.3272,-4.2313
Nb2Sb,84.4305,70.9377,-13.4927
SrLaSc,19.4532,17.2623,-2.1908
Ti2CuS,18.0737,16.6118,-1.4619
PrSm12Y7,20.0054,21.1927,1.1874
CsSi2Mo,12.5498,11.8551,-0.6947
Sr2LaSc,21.0488,18.1035,-2.9453
TiPtS2,51.674,38.2087,-13.4652
Al5CuSi2,17.1842,14.2151,-2.9691
LiTm(NpS2)2,48.2835,41.6037,-6.6798
Os3Ru2Rh3,49.5667,42.5759,-6.9908
TiV4Tc,102.0586,81.5198,-20.5388
TiS2,38.4197,30.3395,-8.0801
SmPaCu2,26.5849,29.6723,3.0875
Ba(SrGe)2,5.849,7.9865,2.1375
Na(InPt)2,43.9771,34.0484,-9.9287
Sm7(BiRu)2,28.4553,30.9317,2.4764
LiNdSmRu,16.4054,19.8194,3.4141
AcFeO4,8.0326,9.4921,1.4595
Sc2InPb2,23.0477,24.9838,1.9361
KSm2Ru,19.5617,21.5567,1.995
Al2Cd2Cl,7.4877,9.4746,1.9869
Sm6Bi2Ru,30.0853,32.3137,2.2284
AlCuSi,17.6276,15.2331,-2.3945
Ac7(PmTm)2,51.3988,52.6455,1.2466
BeAl2Os,23.1879,21.4694,-1.7185
Pr2Sm3Ru2,29.5898,28.0537,-1.5361
Ti(VS2)3,65.3965,48.5086,-16.8879
TbCe(Sm3Tm)2,26.5359,28.0793,1.5435
Ce2BiF2,22.2237,23.8042,1.5805
Sm2NpFe2,17.9016,19.6214,1.7197
YbP,18.1731,21.6604,3.4873
Pa2Ti2S5,46.2695,38.8052,-7.4643
CdRe3I,59.0555,50.3654,-8.6901
KZnCr2,11.6021,9.1994,-2.4027
Ce4Tm3ScS8,41.1083,34.4288,-6.6795
NiSbAu2,37.3178,35.8163,-1.5015
La4AgSe6,40.6579,32.4506,-8.2072
CaCo2Ni,28.2787,20.7229,-7.5557
CeTaN,20.3215,24.0236,3.7021
Er2Co2Cu,10.9129,11.6168,0.7039
Cu2Os2Ru,16.6642,21.7954,5.1313
TaSn2Br,18.6856,21.7654,3.0798
Sm2PaFe2,30.7315,27.3293,-3.4022
TmPa2CrC4,50.468,43.2851,-7.183
Mn2Be2Co3,38.9723,28.9314,-10.0409
Na2Mg(Cd4Ag)3,20.9415,19.4471,-1.4944
U2SnAu2,43.8115,47.9041,4.0926
NaCoAs2Ru,19.5396,15.1878,-4.3518
Ti4SeS,13.0082,11.9661,-1.0422
CeTaN4,1.6618,6.5198,4.8581
Ir2OsRu,40.5605,40.9444,0.3839
PmY(PaP2)2,28.9455,29.1715,0.2259
SmYCuSi,29.8132,27.4424,-2.3708
TiBS,12.5295,12.0116,-0.5179
LaY3Au2,24.9375,24.769,-0.1685
CaLa2Nd,33.3293,25.7152,-7.6141
Ca(LaV)2,68.3243,52.0882,-16.236
NdY3Tl2,22.557,25.6254,3.0684
Y3AgPd2,29.0047,24.0199,-4.9848
CoCuSb,40.4807,30.9728,-9.5079
Y3B2Au2N3,61.2207,51.608,-9.6128
AcLa2Pr,40.9087,34.2643,-6.6445
CaLaNd,23.3515,21.6922,-1.6593
ScSbPd3,25.1023,21.4011,-3.7012
LaTiS2Cl,33.4347,24.189,-9.2456
Y2SiSb,36.4248,31.2563,-5.1685
La(CuSb)2,25.694,20.189,-5.505
Zr3PdPb,73.2548,63.2275,-10.0273
NbBPI2,41.0412,34.4924,-6.5488
Ac4LaPr7,23.217,23.2666,0.0495
Sc(CuGe)2,14.9793,13.3989,-1.5804
K3Al5O12,0.0,0.0,0.0
Li2InRh,18.3899,14.5682,-3.8217
Yb3Ti,27.7193,29.2528,1.5335
ThGeRu2,26.5114,30.0727,3.5613
KHfMoBr2,40.4441,31.3796,-9.0645
GePtO4,16.1377,13.8405,-2.2972
NaInPt2,51.7745,39.3388,-12.4357
SnGeO4,29.2801,24.7898,-4.4904
SbRhC2O,52.0026,39.141,-12.8616
La2Ag3,39.4076,29.1367,-10.271
Pu4Ir2O,52.8755,54.7809,1.9053
Ba5Pb4,22.8148,23.9918,1.177
CdBiI3,28.6565,29.0936,0.4371
Bi2Au,52.2264,53.7827,1.5563
Ti5VRh4,34.4003,27.7969,-6.6035
TlFeSe,33.332,31.4678,-1.8641
TlFeSe,33.5563,31.4678,-2.0884
U5As3,37.2865,41.3412,4.0547
LiNbSi3,42.4584,33.1486,-9.3098
UTaBeO6,2.2221,7.0944,4.8723
Dy7P5Pb,12.5824,19.3978,6.8154
Ce6CdRu,23.0832,24.2947,1.2115
Sr2NbPd2,35.934,32.7529,-3.1811
TiAsS4,44.5784,32.5804,-11.998
LaAg2,34.7096,26.6339,-8.0756
KRb2Ag,10.3954,7.8482,-2.5472
Ta5Ga2NiH,53.2307,44.0655,-9.1652
Ni2SbAs,30.9472,24.1153,-6.8318
Y3ErRh2,27.635,24.2305,-3.4044
TiNiS4,41.6837,29.9637,-11.7199
Ti2CrFe2,6.8968,7.0055,0.1087