Formula,E_hull_DFT (eV/atom),E_hull_ML (eV/atom),Delta (ML - DFT)
EuGdYCd,22.6329,24.8787,2.2458
CePm4Nd,24.9968,27.883,2.8862
UMnNi10,27.608,27.038,-0.57
Hf5Sc2Sb3H2,72.6347,53.107,-19.5277
CeNdSm4,25.1499,27.5363,2.3865
NdSm2H7,7.7076,9.2698,1.5622
La2HgAu2,34.9772,29.655,-5.3222
RbHf2Sb,78.7884,55.544,-23.2443
AlS3Br,36.5003,27.9515,-8.5488
Tb4CeNd,26.0417,28.9975,2.9558
TbLuHf,68.0841,57.049,-11.0351
Nd2Sm2YEr,18.8688,21.9959,3.1272
Ac2Dy(PPd4)3,20.6237,22.6147,1.991
SrGe2Pb,21.2325,22.5776,1.345
PrY2(Er2Sc)3,18.3665,19.5064,1.1399
Nd2SbPb,35.8771,36.1842,0.3071
YMoSe4,45.9966,34.4006,-11.5961
Pr3Y6ErSc2,9.9634,10.7289,0.7655
LuHf2Zr,104.9503,79.7734,-25.1769
TbLuZr2,64.4005,55.6861,-8.7144
FeNi2Ag,33.2977,25.5416,-7.7561
Sc(TaCu)2,63.5968,54.9262,-8.6706
BaH3Pt,14.0256,9.2625,-4.763
Zr2Cu2Sb,45.1005,36.6822,-8.4183
TmMnFe10,16.975,15.4593,-1.5157
B3MoIr,15.7565,15.4425,-0.314
AlReHg2,11.3407,12.7927,1.4521
ScBe2Cr,14.7758,12.2587,-2.5171
Nd4Sm2YEr2,24.5989,26.5924,1.9935
Pr2HfTl,46.5579,38.5987,-7.9592
Li5Sc2Sb3H2,14.2454,12.5646,-1.6808
RbNaN2,12.7724,10.5306,-2.2418
CsTmP2Pt5,55.7662,39.6711,-16.0951
VSiP,31.8613,25.8465,-6.0148
MnGeRu2,35.0042,32.8201,-2.1841
BaNa2Pu2O7,14.1032,14.626,0.5228
RbNa2C,29.1701,21.6856,-7.4845
ErNbCo4,32.4505,31.0525,-1.398
Cs2AgRhI6,25.9903,24.1639,-1.8264
TbCu2Ge,7.1019,10.5583,3.4564
Pm(Sm2Er3)2,27.8225,30.2102,2.3877
Hg4PIr,12.9152,11.095,-1.8203
BeCo4Pb,19.1659,17.0309,-2.135
ScBeCr2,17.1605,13.5104,-3.6501
AlNi4Cl,5.6558,7.7212,2.0654
Pm4ZnAg2,24.0754,24.596,0.5205
Tm4RuRh2Au,40.2559,36.92,-3.3359
TeAuI3,32.0702,31.791,-0.2792
ScBeCr2,16.7391,13.5104,-3.2287
KLa2,35.2633,26.2834,-8.9799
GdYTlCd,27.913,30.2177,2.3046
P2IrAu,30.8767,28.9791,-1.8977
PRu3Se,20.645,20.2629,-0.3822
CsSBr,26.7804,23.6604,-3.12
ErLuAg2,31.061,29.6345,-1.4265
ZnCrTc2,51.7851,44.706,-7.079
Ti3Nb2V3O16,26.9347,21.9039,-5.0307
ScPa3Ge5,25.9598,27.3861,1.4263
Nd2SmYEr2,19.6331,22.5121,2.879
LaGdYCd,28.4688,25.9114,-2.5574
LuTe2Pb,42.0637,41.9966,-0.0671
Li2YMnSe4,37.199,30.8942,-6.3049
ZnCrTc2,51.8548,44.706,-7.1488
CePrAu4,34.2431,36.3127,2.0695
Th3CoPd,23.9831,29.3454,5.3623
TbCeSm4,20.4734,24.0742,3.6008
LiMgBi2,27.8294,29.0093,1.1799
ScNi5As3,15.1315,11.9125,-3.219
KHf2Ta,79.417,59.8548,-19.5622
Ti2Te2W,20.0905,21.5154,1.4249
NaThPt10,81.6606,56.7237,-24.937
Y2VGaSi,49.1004,39.8843,-9.2161
LiTl5,42.4229,43.369,0.9461
Mn3NiAs,83.9096,70.3687,-13.5409
NaPaNb2O8,29.2172,25.8399,-3.3772
Mn(NiAs)2,48.3109,41.6813,-6.6296
AcAlS3,40.2673,32.4169,-7.8503
Er(CuSb)2,21.4579,19.9991,-1.4588
BaB3Mo,7.9812,7.7638,-0.2174
Ti2VCu,36.4333,31.2224,-5.2108
ReMoAs3,11.9169,14.4122,2.4953
LiVSe3,49.7921,39.8608,-9.9313
YB2RuCl,44.3739,37.8175,-6.5564
RbLi2P,8.5528,5.6963,-2.8565
BaSiSn,1.9135,2.9965,1.083
Ni2PdC2,24.6459,20.489,-4.1568
SiB2Mo,8.7258,10.1864,1.4606
NaCa2Hf,42.4276,33.0291,-9.3984
Rh2Br,31.6931,25.836,-5.8571
Rb2ZrCoF6,13.9905,11.2628,-2.7277
PaPdRh,44.2769,42.8676,-1.4093
NdYEr,17.3975,22.2903,4.8928
Li2NbSn,37.1857,33.6783,-3.5074
KRb6,3.6168,2.2862,-1.3306
Sr2CaPrTe4,23.8008,22.5512,-1.2496
Ba2B2Mo,0.8735,2.2304,1.3569
TaAlSb4,37.4612,31.1962,-6.265
NaAcZrO4,24.4122,23.6102,-0.8021
Na(CaSc)2,11.6043,8.561,-3.0433
ZrCdI3,37.6862,33.4449,-4.2413
NaIrW2,29.3831,36.3638,6.9807
CsPPt5,68.1955,46.6453,-21.5502
ZnOsN2,44.2442,36.4964,-7.7478
Pu6FeTe2,57.0489,57.9653,0.9164
Pr2SmPu,22.1358,25.3604,3.2245
TbB2Mo,10.7079,14.9502,4.2423
ZnOsN2,36.6945,36.4964,-0.1981
ZnCoSb2,29.1345,20.5509,-8.5836
Co4BMo2,8.8826,11.5417,2.6591
BaSn3Pt5,50.5415,35.6256,-14.9158
NdY6Er5,21.237,23.2497,2.0127
NbMoW2,58.3604,56.5516,-1.8088
ScGaNiRh,20.5181,17.8359,-2.6822
Ti3ZnGe,8.2617,8.9618,0.7001
ScTcPt,112.2691,91.4047,-20.8644
BeRe,3.7284,18.2871,14.5588
CeSmN2,3.0436,8.4391,5.3956
LaSmMnC,52.9107,42.2633,-10.6474
Ac2AlZnRh6,43.1631,35.8573,-7.3058
YTcB2,73.2541,62.9807,-10.2734
KScTc,87.4154,73.9172,-13.4982
PrAsPt3,53.9247,37.4567,-16.468
TcGe2Sb,34.115,30.6977,-3.4172
Mn4In5Co2,47.2841,40.209,-7.0751
LaAsPt3,65.166,44.6541,-20.5119
LiB4Ru,3.2852,6.049,2.7639
K2TcPt,52.9195,41.0102,-11.9094
Sm3InAs,15.2,18.5024,3.3024
NaAuC2,50.2629,39.6311,-10.6318
Li2BeSbBr,20.0347,16.2823,-3.7524
NdY(ErS2)2,38.5799,32.1647,-6.4152
Y(TcB)3,59.6673,50.7847,-8.8827
Rb(BaSb)2,14.1456,12.0052,-2.1404
Co(ReB)2,7.9058,13.3544,5.4486
Pr2NiSnO6,18.5112,13.7333,-4.7778
Zn2CoSb,23.6692,16.5466,-7.1227
Zn2CoSb,23.6973,16.5466,-7.1507
Na2CeZr3N6,29.8842,25.7255,-4.1587
KCr4Pb,17.8104,17.2676,-0.5428
Rb(MgSb)2,18.9199,15.2985,-3.6214
RbBaSb,11.7187,9.8705,-1.8483
RbBaSb,15.0471,9.8705,-5.1767
Nd4YEr6,26.4013,28.5301,2.1289
Rb2MgSb,12.8229,10.1878,-2.6351
Cs2BaGa,16.8927,15.7881,-1.1047
BeCo4Rh,16.8502,13.8089,-3.0413
BaSrTaN3,8.4622,8.8952,0.4331
Na3Th(BiSe3)2,43.8867,38.3919,-5.4947
CsBaGa,11.6392,11.8857,0.2465
LaLu2Sb,40.4602,34.7914,-5.6689
Yb2Mn,52.9083,48.893,-4.0152
Cr2Co2Si,2.1827,3.4924,1.3097
Rb2SbH2Pt7,56.2507,38.3239,-17.9268
HoAsRh3,36.5644,28.9593,-7.6051
CaNdYEr,23.3337,22.4793,-0.8544
Sb4PAu,39.1618,32.2137,-6.9481
Ce2Dy(Y2Tm)3,21.0753,22.5907,1.5155
LaNd6Y2Er3,26.2975,26.2673,-0.0301
Ba3CaRu,5.7046,6.4267,0.7221
MoRuS2,30.3765,25.2134,-5.1632
BaSrRu2,12.4223,14.239,1.8167
Ni2PN,16.4424,13.894,-2.5483
NaBeNiO2,5.576,5.9633,0.3873
SrMnFe3,37.3843,30.2355,-7.1488
NaThInPb,40.6817,41.5959,0.9143
Sc2CoTeC,26.627,21.7906,-4.8365
Sr8CuN4,10.3886,10.398,0.0093
BaSrRu,10.3501,12.6002,2.2501
BaCa2Ru,6.8097,9.2919,2.4821
NaSmPt10,78.3021,53.2431,-25.059
HoTcNi4,24.2052,24.6762,0.471
K2Na2Cd5Ag2,21.1019,18.9696,-2.1323
HfSnOs,68.555,57.7906,-10.7643
SrSiIrN,21.0764,18.1351,-2.9413
SrFeAu4,41.3787,40.6042,-0.7745
ScMnInRh,44.2,36.7042,-7.4957
NaCr2Br,23.5423,21.1858,-2.3566
GdYCdGa,17.7992,19.7591,1.9599
Ho4CS3,41.4582,33.643,-7.8152
Cs2RbAsI6,24.3578,24.1468,-0.2109
NaSrCd10,19.8879,19.1083,-0.7796
Ti3BMo,7.5228,9.5012,1.9784
YbAlPd,4.9602,11.6035,6.6433
CeEr2Hg5,9.8732,10.9913,1.1181
PrNd3(SmY3)2,17.1205,18.4893,1.3688
VNiSe,42.0567,33.1259,-8.9308
LaPr2VN5,16.3162,9.8908,-6.4254
Na2HoPWO8,5.8766,3.9927,-1.8839
Te2Pd2Au,29.2402,30.0216,0.7814
NaNiPO4,0.2331,1.3357,1.1026
Li6La2Pd3,14.1271,11.5838,-2.5433
Na4Ni7(PO4)6,18.728,16.355,-2.373
Sm2SbAsRh6,32.6189,24.7414,-7.8775
Sb2PRh,35.8859,28.1152,-7.7707
SbP3Rh,22.5532,17.5002,-5.053
SnAsSe3,42.6324,38.1475,-4.4849
PrHfBi2,62.0395,54.1079,-7.9316
Rb2SiAg2,14.07,10.1976,-3.8724
PrNd3(Sm3Y)2,20.8461,22.3145,1.4684
NaCeZn10,10.3489,10.6758,0.3269
FeTe4W,37.3501,34.6652,-2.6849
Pr2Nd3Sm6Y,19.5455,20.8374,1.292
MgInF4,5.2916,5.0203,-0.2713
TcPt,67.9171,52.446,-15.4711
Y(AlAu)2,29.4823,28.2937,-1.1887
Sc3Br,7.433,9.4699,2.0369
NaSr3Rh,14.6706,13.3103,-1.3603
Cs2NaIn3Sn4,21.4151,21.569,0.1539
Sc3Br,7.8889,9.4699,1.581
Sc4Te2C,24.9957,21.5549,-3.4408
Cr2RuC,29.7004,28.6748,-1.0257
K(BRu)2,3.8015,8.2699,4.4684
NaSr2CuO,11.8029,12.0091,0.2062
NiAgAs2,19.862,17.1347,-2.7273
NaNi2Mo2H3O10,12.3577,10.9498,-1.4079
NbZnOsRh,59.7258,52.3,-7.4258
Ta3Pb,41.074,46.2504,5.1765
Ni3PtRh,32.8346,24.7172,-8.1175
YP2PdO,29.8146,23.9958,-5.8188
TbAsRh3,36.0663,28.6587,-7.4076
Ni4OsPb,20.2672,22.9424,2.6752
SmAsRh3,35.7572,28.3312,-7.426
Na6Fe2C4SO16,17.5393,16.6944,-0.8449
Na3CoAsCO7,11.9643,11.2935,-0.6708
Ta3Pb,31.5991,46.2504,14.6513
NaTmZn10,10.8281,11.1233,0.2952
Zr3Re,74.3687,61.6785,-12.6902
Na4SrTa5O15,4.932,5.4883,0.5563
Na2SmPCO7,8.7073,8.0023,-0.705
ZrRe,47.9794,53.1989,5.2195
Sr2SbAsAu6,34.6176,33.9994,-0.6181
Ba3In4O9,10.7941,10.5801,-0.214
Ba3Tb4O9,20.7213,14.79,-5.9313
Na6Ni2As(CO4)4,14.0829,14.0467,-0.0362
ScTeC3,49.6833,36.0979,-13.5855
GaI2BrN,15.1738,14.7559,-0.4179
Ga3PdRu,18.7458,17.1999,-1.5459
Y2Ga4Co3,25.5427,22.6832,-2.8595
PaRh6,52.3705,40.1038,-12.2666
YGa4Co,16.5368,15.5336,-1.0032
TcPt2,91.0845,67.6857,-23.3988
PaRh,57.5342,56.1474,-1.3868
Tb2YErBi5,41.0377,42.4628,1.4251
CrSbPt4,68.66,47.3779,-21.282
LaSn2Pt,39.1922,29.2445,-9.9477
LiReMo,23.6718,23.3731,-0.2987
UMnB3,25.3219,26.4435,1.1216
TcRu2I,37.9217,34.2167,-3.705
Ag2Pt2Au5,53.1264,45.8312,-7.2951
Tb3Y2ErBi6,37.8402,39.837,1.9969
In2Ag5Sn2,26.4621,23.8172,-2.645
KLi3Bi,13.3632,13.7285,0.3653
Y6Ga2Co,20.5068,19.879,-0.6278
Tb3Y(ErBi3)2,39.1472,41.0608,1.9136
ZrAu4Cl,48.6233,46.7648,-1.8585
YBe4Ir,11.557,11.9476,0.3906
Na2Li3Sb2,19.6201,15.562,-4.0581
Nd2U(SeN)2,29.2104,29.501,0.2907
PrNd2Sm,17.5528,21.0574,3.5046
Ti2AlPt5Rh,50.4559,33.313,-17.1429
HoNiB3,0.5162,5.4592,4.9431
NaAgO2F,13.444,11.1691,-2.2748
PIrAu,39.9842,37.2666,-2.7176
Sr2HfZr,64.0137,50.8299,-13.1838
CeSm3N4,11.3894,14.1725,2.7831
P3Ir2Au,32.6577,29.1137,-3.544
CoCu4Ru,19.3883,17.9548,-1.4336
TaB3Ir,7.4022,13.2533,5.8511
Zr3Re4,64.8884,61.284,-3.6043
NaCo2Re,20.5826,21.508,0.9254
MoICl4,14.4329,10.761,-3.6719
V4Ni2C,84.0448,65.3358,-18.7091
CaSb2W,35.1203,30.1605,-4.9598
BaSb2Se,30.3039,25.2834,-5.0206
YGa4CoNi2,35.3951,30.0102,-5.385
YBPt4,85.2398,60.4321,-24.8077
AcYNiGe,61.1457,56.1966,-4.9491
Y2BeB2Ir5,53.0535,49.0342,-4.0193
Si2PRu,12.493,9.7452,-2.7478
Sc2FeTc2,90.9209,77.4101,-13.5108
MnPI2,39.9608,33.8499,-6.1109
SiP2Ru,8.4584,9.3225,0.8641
Nb(H2Ru)2,19.1424,17.6748,-1.4676
NaPr2IrO6,3.4167,3.064,-0.3527
Li2BeIn2,8.1321,7.2325,-0.8996
Dy2GaIr,25.9707,28.941,2.9703
AlCrRu4,13.2979,15.4894,2.1915
Hf3MnGa2N,52.0643,35.2817,-16.7826
La(BiSb)2,45.3096,39.0552,-6.2544
SiP2Ru,15.4339,9.3225,-6.1114
AcSmPb2,48.2226,50.4938,2.2712
NaTi2Pt,36.765,28.5661,-8.1989
Eu2GaSn,21.4558,22.951,1.4953
BeRe4Ir,34.5884,38.2046,3.6162
SiPRu2,19.9992,16.8862,-3.113
Eu2GaSn,21.2479,22.951,1.7032
EuGaSn,0.0,5.374,5.374
ScTc,124.8051,107.2152,-17.5899
CsKNa10,23.5589,19.2357,-4.3232
Cd2Sb2Pb,33.5465,30.746,-2.8005
La2MnIn2,43.871,34.0908,-9.7802
GaCuI4,16.4512,16.8415,0.3903
PrHo(ThSb2)2,40.8987,37.5818,-3.3169
NbTlCl4,29.4385,26.3459,-3.0926
SbPOs4,37.0474,38.0798,1.0325
GaBRu3,7.4468,9.1764,1.7296
SrZrFe,53.7655,42.1956,-11.5699
Tb4Dy3TmSe8,36.0613,32.1608,-3.9005
EuGaSn,19.3937,5.374,-14.0197
Ca2Pu2Bi2H,37.0374,39.2701,2.2327
OsBr2N,39.2338,32.725,-6.5088
TiTc2RhS,60.5691,48.4421,-12.1269
Ca5(AlHg)2,0.9194,2.756,1.8366
Sr6Li2Ca,10.4895,10.5236,0.0341
KMn2Rh,65.9343,52.2277,-13.7065
ZnRhAu,22.0325,21.5914,-0.4411
TlNiCl4,11.7727,12.6518,0.879
Ca2SbW,25.0942,23.7846,-1.3096
Sr2NbNiO6,10.8222,10.7351,-0.087
CaSbW,31.9372,30.1468,-1.7904
NaSiBr2,15.2479,13.4794,-1.7685
Sr2NpNiO6,2.8248,6.0413,3.2165
Be2PW,68.3563,56.7142,-11.6421
Ta2SbP,32.3168,31.7836,-0.5332
HoTmI,26.9485,29.1354,2.1869
AcNd2(ThAs2)3,29.5749,31.7527,2.1778
YRe2SiC,44.1897,42.8842,-1.3055
Cr4ReSi,15.3114,15.8141,0.5027
K3(SeS2)2,35.7651,25.8402,-9.9249
MnTl2Sb,61.8584,54.9502,-6.9083
NdPt10Pb,80.6399,55.7868,-24.8531
Hf2In2I,64.7984,49.7592,-15.0392
RbNbCl4,20.8529,18.5178,-2.335
YTaBeIr2,41.5589,38.4458,-3.113
Li2VSe2,39.8517,30.8128,-9.0389
Rb4InCo2,6.4987,6.3784,-0.1202
TaBr,10.8778,21.6773,10.7995
SrZn4Co,13.0486,10.7026,-2.346
Rb2Pd(S4O13)2,16.0965,13.3807,-2.7157
Fe4SiBr,6.3565,5.1765,-1.18
HfMg2NbRh4,60.1576,46.2589,-13.8987
BaSr2Te,16.8929,17.5444,0.6516
Nd2ThN3,9.6546,16.0252,6.3706
ZnGaRu,12.0671,13.2188,1.1518
Al2ZnTc2,35.6424,31.4459,-4.1965
Ba2SrTe3,21.5429,21.4172,-0.1257
H5(RhPb4)3,27.3498,25.7857,-1.5642
BaLi2Te,14.2097,13.115,-1.0947
LiMn2AsO4,72.6526,64.9057,-7.7469
CrAuSe4,42.2275,35.2171,-7.0104
AcThNi10,15.7387,17.9643,2.2256
NaB2MoO6,2.8964,2.6278,-0.2686
Be3NiBi,12.6065,14.0222,1.4157
V2GeSe6,56.2355,43.861,-12.3744
BaLa2Sm,32.2006,25.0824,-7.1182
Li2InAs,5.6978,8.6968,2.9989
Fe4CuP,25.3157,21.5281,-3.7876
WCIO2,44.333,36.0746,-8.2584
CaPb3S4,47.8231,40.6687,-7.1544
ZrBr2,39.3181,34.2174,-5.1007
YTe3S,39.2474,34.5101,-4.7373
NiGe2Au,17.9464,17.565,-0.3814
Mn2Al2Se5,48.9862,39.8613,-9.1249
ZrBr3,27.7783,25.058,-2.7202
Na2CrAs2,12.5465,10.8968,-1.6497
BaFe(WO4)2,11.162,12.2711,1.1091
Ca2LaPr,15.1879,11.9436,-3.2443
AlCrFe2,13.9949,11.629,-2.3659
CoOsW4,78.6527,68.2314,-10.4213
MnRe4W,49.9445,50.1282,0.1836
HfTi5Sb3,26.1442,20.7537,-5.3905
HfCuGe,45.9983,38.1486,-7.8497
HgMo2Se,20.1999,19.5127,-0.6872
YU(TlS2)2,58.2383,52.443,-5.7953
SmGa2,9.0103,12.9344,3.9241
NbGa2,47.0472,40.6172,-6.4301
YLuSnPt,49.3376,39.1035,-10.2341
SrGe2Os,12.9877,16.8791,3.8915
AcLa2(PrAs2)3,16.3082,15.2662,-1.042
BaNa2MnNb,61.4337,50.7838,-10.6499
KCrMo2,14.0102,15.3939,1.3836
MnAu5,51.6491,50.2092,-1.44
NdGa2,8.8565,12.7301,3.8736
Ce3TiBi5,32.9085,35.7134,2.8048
NaSr3Te,20.9794,19.7922,-1.1872
YAlOs,16.555,17.7493,1.1944
LiVSb2,54.6228,43.2156,-11.4071
InSn2IrSe,31.9437,30.5629,-1.3809
Ca2BPdO5,21.0071,19.1148,-1.8923
TaTlCl4,12.2585,15.9493,3.6907
Ca3Er3Ge2BO13,19.3428,16.2234,-3.1195
Na2Li2Ca,9.6596,8.7686,-0.891
In2FeOs,30.1358,27.4236,-2.7122
RbNaCr2,10.5895,10.3757,-0.2137
Ca2Ac(BO3)2,20.8121,18.9376,-1.8745
RbNa3Cr,19.1048,15.7609,-3.3439
Er5Ga2,18.6671,21.6261,2.959
Tc(GeW)2,29.2276,31.3706,2.1429
Mn4CdS5,69.6224,53.7395,-15.8829
ZrTi5Ga3,10.3152,10.2692,-0.0459
YAl2Os,30.3891,27.7992,-2.5898
Y3AlOs,31.1309,26.9144,-4.2165
NiBiPt3,67.3778,49.2781,-18.0997
GdScI,18.9672,20.4075,1.4403
Ho5Er3,24.1291,26.6375,2.5084
GeSbSe,34.1778,28.1595,-6.0183
FeCoSb,33.9334,27.5684,-6.365
Ga5(I4Br)3,11.1007,12.2219,1.1212
SrNpNiO6,3.3355,4.3494,1.0139
BaGe2Sb,11.6913,12.2575,0.5662
Ge2Sb2Se5,38.5991,31.3898,-7.2093
Y2Pa(TeN)2,56.0073,49.0776,-6.9297
Pu5TlPb3,53.5198,56.5212,3.0014
BaGeSb2,20.2491,17.8606,-2.3884
BaSb2Se,33.8771,25.2834,-8.5937
Tb5PrY3,14.5359,18.2022,3.6663
Tb5DyY3,17.78,21.3528,3.5728
BaLa2Sb,36.7706,26.5941,-10.1765
Na2Mo2C,22.5173,19.3639,-3.1534
Y2Rh,25.0349,23.8509,-1.184
Ge2SbSe3,30.394,24.9861,-5.408
BaLaSb2,34.4022,26.9013,-7.5009
NaHf2TlSi,76.1473,56.7912,-19.3561
TmTh3Pb5,48.8905,52.2023,3.3118
Cd2NiOs,20.5954,22.4665,1.871
CaHo(BO3)2,4.5232,4.3761,-0.1471
La3CeCoAu2,40.2538,32.7353,-7.5185
ZrCu(WO4)2,17.2378,17.8954,0.6576
Er5(TiPt4)3,42.1509,26.0518,-16.0991
ErPPt,19.8609,16.1929,-3.668
Ba(YIr)2,35.5658,35.0951,-0.4707
Mn4SiMo,71.2751,58.6679,-12.6072
Fe(SiTc)2,36.031,29.2846,-6.7464
Tb5PmY3,17.4792,21.0138,3.5346
LiLaSc2,16.0685,12.9722,-3.0963
NaCeAu10,43.2764,43.9061,0.6297
KAgF3,1.4504,0.59,-0.8604
TmHfMgN3,31.2378,26.3309,-4.9069
Ba3HgPt,8.4044,5.2489,-3.1555
LiFeRu2,26.1225,23.699,-2.4235
USi3Pd5,15.9588,16.4938,0.535
TmPuMnN3,22.8802,25.158,2.2778
YGe2Pd7Pb2,24.271,24.8046,0.5336
AlSbN2,12.3116,12.8459,0.5344
RePCl,42.9155,37.1073,-5.8083
YTmN,43.1334,43.5383,0.4049
BiAsC,37.197,32.1544,-5.0426
TeMo2AsOs,31.5331,27.0777,-4.4555
BeTlSe,33.3335,31.4542,-1.8793
AgTe2,38.7468,35.2919,-3.4549
Mn2InN,47.4225,41.4106,-6.0119
CsZr(BO3)2,17.4615,13.5718,-3.8897
Na(Hg3O4)2,1.8666,2.4033,0.5367
Sr3LaF,21.5162,17.288,-4.2282
Sm2TlRu2,20.1765,24.1945,4.018
Sr4MnRe,39.2482,34.2108,-5.0374
ZnSnAsAu,18.0192,20.8862,2.867
AsRuPt2,53.9085,38.8758,-15.0327
Zr2ZnCr,54.6465,44.7695,-9.877
CdPbCl,25.3228,26.8677,1.5449
CrCuSb2,27.7986,22.1059,-5.6927
LaFeNi2,38.4105,28.0731,-10.3374
ThBeAl3,23.8133,22.7347,-1.0786
Tc3W,79.3558,72.0806,-7.2752
TcW,0.6949,9.5293,8.8343
CaFePb4,46.5844,43.7712,-2.8132
CaFe(SiB3)2,4.1046,1.8517,-2.253
ZrCr,44.9557,40.607,-4.3487
RbInSi,12.5314,10.6331,-1.8983
NaPaPdAu,39.0513,40.5328,1.4816
CaNb3Sn,91.4444,75.621,-15.8234
NaV2Cu,73.2368,57.6906,-15.5461
Ca3NbSn,36.1687,31.4139,-4.7548
YLuPt,44.746,37.5569,-7.1891
RbInCo2,5.5981,7.5322,1.9341
Pm3SmSb4,33.6776,30.6084,-3.0691
BeCrSb2,24.8669,20.249,-4.6179
NaMnAs2Br,31.9599,29.1982,-2.7617
AlS3I,40.7044,29.031,-11.6734
Be2CrSb,13.8417,12.3985,-1.4432
Sc3AlAg,4.8675,6.1934,1.3259
CePrAs,9.3321,12.3952,3.063
Ac3Si4Pb,37.8237,35.4478,-2.3758
NaMo2(P2O7)2,14.9887,11.833,-3.1557
Zr2MnGaN,60.2996,48.6432,-11.6564
AlInSe3,28.865,24.9207,-3.9443
Tb3(YTm4)2,27.3822,28.8925,1.5103
Ti3AlGe,6.7953,8.2547,1.4594
CrOsI2N,37.8681,32.1151,-5.753
Na2CaIn2,16.5451,15.8707,-0.6744
K2Sb2P,20.0471,16.0776,-3.9696
SrAlAg3,19.1148,16.6754,-2.4394
CaTl4W,41.9323,43.2788,1.3465
TaPt2Au,58.8798,48.7666,-10.1132
RePt2Pb,68.2039,57.25,-10.9539
KYBeO2,20.7762,18.0522,-2.724
CaYEr,22.801,20.7261,-2.0749
ScTa,79.0014,64.0654,-14.936
LaCe(ThSb2)2,47.4805,41.7518,-5.7287
MnVCSe2,78.5236,60.102,-18.4216
InIr2Os,37.3553,41.8079,4.4527
BaYF6,17.6614,13.648,-4.0134
AcTb4Tm,29.1872,32.9398,3.7526
CaAc2SO8,21.9461,22.0191,0.073
Tc2P,54.1252,52.4458,-1.6794
TcP,22.5126,25.6827,3.17
Al3VSe,37.9536,30.7039,-7.2497
PmReN3,35.9091,40.5765,4.6674
RePtPb,61.4304,53.4808,-7.9495
TaMnSi2,41.501,35.6832,-5.8178
HfScPd3,43.9144,34.3071,-9.6073
Ta2MnSi,47.077,45.7154,-1.3617
AlV3Ga,59.113,46.1193,-12.9937
TmLuGaAg,25.5202,26.6196,1.0994
SrSi3Rh5,31.0983,20.3201,-10.7781
VSe,54.4788,39.1259,-15.3529
ScTcTe4,70.3228,61.3568,-8.966
SrTl2B,26.3684,29.1485,2.7801
AlV3Tc,89.0594,70.0277,-19.0318
SbTe2NF,39.3848,33.5534,-5.8315
LiSc2Ti,4.4134,7.5501,3.1367
NaScS2,44.0013,36.7501,-7.2511
BaY2F,32.8948,27.9164,-4.9784
Nd3Sm2YEr6,26.1842,27.8473,1.6632
LuPuGaAg,36.0969,36.9211,0.8242
CuRhCl4,12.1488,10.3296,-1.8191
La2Cu(H3Pt)2,28.3361,19.4596,-8.8765
RbInSi,4.0291,10.6331,6.604
Y6Si2SbSe3,33.8807,28.8571,-5.0236
SrWN3,16.7308,14.6941,-2.0366
Ga2Ag5,21.9077,18.4388,-3.4689
Pa5Fe2,49.0602,49.5155,0.4554
Ba5Ga2,2.4332,1.8848,-0.5485
Ac5Ga2,44.3247,47.4961,3.1714
Al2GeN,8.2398,8.7345,0.4947
NaInPb,29.5432,29.4401,-0.1031
BiTeP2,26.5505,27.0559,0.5054
ZnTeW2,32.3704,34.9444,2.574
Tm2BAsRh6,41.655,33.7112,-7.9438
NaTe3Os,38.9163,36.2795,-2.6368
Ba(SrGe)2,5.7142,7.7277,2.0135
CsPu(SbO4)2,25.0528,24.0785,-0.9743
V2Sn2Se,63.6476,51.1521,-12.4955
Pa2BRu6C,33.073,32.534,-0.539
LiW4Au,34.2466,38.0956,3.849
Na2S2O3,7.6048,6.1179,-1.4869
RbInSi,9.223,10.6331,1.4101
RbInSi,9.2246,10.6331,1.4085
Rb2In2Si,9.3979,8.2324,-1.1655
FeRhAu,32.2297,29.7843,-2.4454
Cr2TcI,27.7716,25.1845,-2.587
RbCo3Si,9.6789,8.1634,-1.5155
Rb3InSi,8.5713,6.5336,-2.0377
Nd3AlZn,12.7921,15.4871,2.6949
TcP2Pb,32.0665,31.6728,-0.3937
TcPPb2,46.5545,45.497,-1.0574
HfZr3Al,89.1393,68.4254,-20.7139
ZrAlTe3,40.0063,35.0507,-4.9555
BeBi3Pb,44.6601,44.9896,0.3295
Rb3CoSi,6.3629,4.2862,-2.0768
FeRhAu2,36.0984,34.6461,-1.4524
RbIn,8.9097,10.2481,1.3384
MnPRu3,31.7227,29.16,-2.5627
TcPPb2,51.1904,45.497,-5.6934
Al2AuN,14.0942,15.9073,1.8131
MnNi(H4Rh)2,25.5642,20.6924,-4.8718
SiNiOs2,26.3796,28.1045,1.7249
LaNiIr4,30.7759,32.9161,2.1401
LiPtBr,41.9276,32.7046,-9.223
BaYF6,17.6728,13.648,-4.0248
Na2Y(SnS2)3,41.498,31.2541,-10.2438
NaLaCu10,11.9396,11.0793,-0.8603
CoNiC2,45.6316,32.8095,-12.8221
BeC2,34.8219,31.0702,-3.7517
Na3ReO6,11.9603,11.9174,-0.043
KGeP2C,19.7714,15.0148,-4.7566
Pr2SmSb,14.7582,15.0662,0.308
PrSm2Y7,15.2099,16.4273,1.2175
AlPb2Au,39.0098,41.9575,2.9478
AcAl2ZnCu4,15.1319,14.6792,-0.4527
FePbCl4,13.1401,13.5829,0.4429
Nd2SmYTm5,22.5589,25.2346,2.6757
RbZrSi,33.0257,27.0895,-5.9362
Pa5SiSb3,45.6833,45.7399,0.0566
Nd3Sm(YTm3)2,25.9026,27.3826,1.48
ErPu3N4,29.7065,31.4551,1.7486
Nd3Sm2Y6Tm,19.8251,21.3487,1.5237
Na3ScSb,27.0876,21.3609,-5.7268
Nd3SmYTm,19.1446,22.4594,3.3148
Nd4Sm2YTm2,24.8865,26.8226,1.936
CaInPb2,32.2266,34.2917,2.065
HfBe10Rh,15.8621,12.527,-3.3351
LuHfGaAg,54.01,44.1579,-9.8521
Ac3PmSi3,32.1108,32.2626,0.1518
In12P5Pb3,10.542,12.1695,1.6275
HfNb2HgH,85.2822,66.7276,-18.5546
V2PbSe,89.964,73.6312,-16.3327
LaPr2Rh,22.6739,16.8853,-5.7885
CsZnP,8.6041,11.1299,2.5258
LaTaAl2,23.6834,22.2209,-1.4625
Ba3Li2(InPb2)2,23.9122,24.3446,0.4324
Pu5(HfH)2,61.003,54.725,-6.278
Y8Te4As3Pt,23.5043,22.0607,-1.4437
Sr2Ti2Os,14.1806,16.0199,1.8394
VGaSe3,56.8273,44.7412,-12.0861
K2LaPaO6,11.3572,13.6156,2.2585
Mn3Tc,97.8159,80.7719,-17.044
La2PmSb,42.7208,32.4922,-10.2287
LuPaCo,35.8259,39.463,3.6371
GaAuCl4,11.429,12.237,0.8081
SmYAgPb,30.2727,31.403,1.1302
KNa3(SO3)4,15.8593,14.0934,-1.7659
La2BiSb,49.7959,40.0614,-9.7345
BaNaMg10,4.843,4.6617,-0.1813
NaLaPt10,80.4925,53.724,-26.7684
RbMn4P3,54.2672,43.3057,-10.9615
TcAsIr2,47.9571,47.4868,-0.4703
S2ICl2,27.7271,21.3549,-6.3722
LaBi2Sb,51.628,45.8965,-5.7314
La3BiSb,50.8163,38.1716,-12.6447
Sr2YReNi,58.1124,47.6473,-10.4651
HgTeP2,12.9633,12.7311,-0.2322
AlReHg,14.8848,17.2523,2.3675
YAuN2O,35.5297,31.1099,-4.4198
YGeSO2,32.9511,27.3046,-5.6465
NiSbAs,17.6482,14.5176,-3.1306
NiPtRh2,48.4612,35.3424,-13.1188
SrIn4Co,16.7543,17.8891,1.1348
ReAg2Pd,26.5521,27.0728,0.5207
CsUTe2Pd,33.0586,34.4216,1.363
Pr10Sn4N3,7.5964,6.7333,-0.8631
PmYGeIr,24.3476,25.3762,1.0286