Formula,E_hull_DFT (eV/atom),E_hull_ML (eV/atom),Delta (ML - DFT)
Mo3Ir,30.9997,27.0314,-3.9683
Cr2TcBr,44.6947,39.7869,-4.9078
YCuAgHg,25.6279,21.5398,-4.0881
Cu2SnIr,42.1711,39.9482,-2.2228
CdP2Se,18.6892,16.8702,-1.819
TaGeNO2,10.4065,10.4585,0.052
Ac(NdRh)2,35.5884,33.9586,-1.6299
Na2CaZrBr,33.7523,27.4349,-6.3174
Ba2MoPb,18.8046,18.6731,-0.1315
Ac4AsPtS2,57.2962,51.7477,-5.5486
AgSb2Se,39.1429,30.9178,-8.2251
Co2AgSe,23.3734,20.4656,-2.9078
Er2Si2GeIr5,23.0105,25.6199,2.6095
Zn3CdSi,12.7963,12.2258,-0.5705
NbGeSe2N,50.3307,41.1718,-9.1589
YSb2Br,36.0014,33.8509,-2.1505
KZnP,8.5208,8.476,-0.0448
Na2Li3PuF12,10.4683,10.7587,0.2904
KBa2Ir,14.3337,15.4181,1.0844
Tl2Ir,48.7251,51.3972,2.6721
HgRh2W,34.3579,29.5635,-4.7945
Co2AgSe,23.3116,20.4656,-2.8459
Y2SbBr,28.0654,27.7277,-0.3377
SiC2,47.2333,33.5018,-13.7315
Na2PaVO5,25.8874,22.6013,-3.2861
K2CaY,16.29,12.8595,-3.4306
YThPd4,23.4065,25.2717,1.8652
Co2AuSe,28.179,26.69,-1.489
FeSiN2O,10.1515,7.4951,-2.6564
Sr5Tl4Pb,31.8666,33.502,1.6354
BeAg2Te,27.1294,23.2893,-3.8402
BeAg2Te,27.2721,23.2893,-3.9829
TeI2,27.1996,27.874,0.6744
LaYAgHg,32.9971,25.236,-7.7611
NaNbSeI2,53.0931,44.3469,-8.7462
CuSiSe,25.0107,19.8723,-5.1384
RbTi3Os,14.5531,15.6094,1.0563
Tb2NdRh2,28.3013,26.1387,-2.1626
LiSi4Os,14.1716,11.1272,-3.0445
TaFe2Se,21.5059,21.4416,-0.0644
YSbBr3,24.9064,23.1106,-1.7959
LiYTmAg,18.9668,19.7128,0.746
Ac2SbPt,64.9522,57.0656,-7.8866
Li2ZrSi,33.7021,27.7751,-5.927
Dy3BC3,36.3449,29.1845,-7.1604
LaYSiAg,42.6063,34.3493,-8.257
LiDySb2,28.7584,24.9317,-3.8267
YTmZnAg,22.5395,21.5685,-0.9709
AcY2Sc,24.4161,26.7451,2.329
Ac3SnSb2Pt9,73.3832,54.6337,-18.7495
TbMgAg6,27.0385,22.8835,-4.155
Co2SeBr,23.8656,20.1659,-3.6997
Y3(ZnPd)4,21.8753,19.377,-2.4983
CdH6Ir2Pd,8.2831,10.1141,1.831
Th2CuSb4,44.7759,40.4319,-4.344
SrSiTe2,39.0472,32.6609,-6.3863
Co2TcBr,35.9899,31.3089,-4.681
LiAc2Sb3Pt4,61.3002,46.8582,-14.442
Co2TcBr,35.9518,31.3089,-4.6429
SiRu2Pb,31.8166,28.2508,-3.5659
Ac6TlCd2,52.728,54.4151,1.6871
Ba2BeP,9.6915,7.9713,-1.7202
CsCo3Tc,29.8706,27.4976,-2.373
Nd7Y12Sc,18.5408,18.6785,0.1378
Sm4NO3,11.0949,11.9684,0.8735
Tm6Cu2Ag,20.8379,22.851,2.013
ErFe4Ir,12.0254,15.1624,3.137
Ac2YSc,37.3222,40.588,3.2658
LiAc2SbPt6,70.3854,52.6433,-17.7421
Nd6Co2Os,16.3743,19.9776,3.6033
ScMn2Cr,61.4391,49.3914,-12.0477
SrAcHgPb,32.0361,34.2946,2.2584
PmPRhS,26.6444,26.8135,0.1691
Ac(NdY)4,18.8855,22.6341,3.7485
Y2TeMo2,32.8142,23.0486,-9.7656
ScMnCr2,38.679,31.5562,-7.1228
Nd(Ho3Co)2,17.6977,21.1464,3.4486
VPbS2,67.6147,54.4764,-13.1383
Nd(YTm)4,17.1247,20.6465,3.5218
TlGa(TeO3)2,16.6912,15.2786,-1.4126
Li2ScIr,20.7035,14.452,-6.2514
Ac(PmY)4,18.9547,22.545,3.5903
TaCrSe2,60.534,45.1412,-15.3928
Ac4Ir2Pt5,71.1965,59.0262,-12.1702
Li2ScIr,20.9551,14.452,-6.5031
Li2ScIr,20.9904,14.452,-6.5384
RhI,23.9413,21.4553,-2.486
SmCuAg,20.9563,21.139,0.1827
AcPrPdPt,40.7937,35.6876,-5.1061
Ho2AgRu,26.1127,26.6326,0.5199
Tb2PtF,36.0446,31.5652,-4.4794
Na2CrSb,26.2181,22.3437,-3.8744
Na3CrI,21.6084,18.7978,-2.8105
ScTl3,39.3313,40.8118,1.4805
ZrOs3Rh,57.2535,50.821,-6.4326
BaGePPd3,7.4591,9.7846,2.3256
Li2ScIr,20.5012,14.452,-6.0492
Ca2TcRu,25.8311,26.1594,0.3284
TiNbN2F,30.9624,26.5044,-4.458
AcTePt,64.3821,55.8449,-8.5372
Tm2TlI,33.3735,35.2526,1.8791
Y4Te5,28.4791,28.2059,-0.2731
Sn2OsPb,34.5977,37.0968,2.4992
GaIrN2O,25.063,23.3721,-1.6909
Y(Ga3S4)2,34.2021,25.6977,-8.5043
BeAlCu2,15.4603,13.4645,-1.9957
CaTbNd6,22.4812,24.2866,1.8054
Mg2TiCuH6,6.6939,5.8867,-0.8072
Hg4Mo2O9,5.7198,7.2189,1.4991
Zr7Pb,92.5335,73.6547,-18.8788
YSc2Be,9.7407,9.1507,-0.59
Ho6Fe2Cu,22.4407,23.4897,1.049
AlIrN2O,11.8648,11.8898,0.025
Sc2Fe,24.2366,24.7071,0.4706
TmInI,20.1037,23.6324,3.5287
Nb2VN,103.1359,84.5336,-18.6022
La2GaPb,40.5166,33.4239,-7.0927
Pm(ThRh)2,42.7443,41.0505,-1.6938
AcTePt,58.6827,55.8449,-2.8378
NaLi2As2Pb,16.0136,16.1127,0.0991
SbTeRh,28.7261,24.8245,-3.9016
BaV2Si,62.8498,47.5683,-15.2816
Ac2TePt,63.8522,58.5218,-5.3304
MnIr3Ru,54.2404,48.6113,-5.6291
La2PuCd6,32.0039,29.0121,-2.9918
SmEr3Ag2,25.3416,25.7061,0.3645
InSbPbAu,41.1965,40.0173,-1.1792
BaC3,49.6128,34.002,-15.6108
BeRh3,37.7254,26.7165,-11.0089
ErNi4Pb,17.5256,20.3579,2.8323
Rb(FeI3)2,11.6367,12.0044,0.3676
ScFe2As,44.764,39.1898,-5.5742
TlGaIO2,43.9971,37.2394,-6.7577
La(CeCd3)2,23.7781,23.1099,-0.6682
Cs2CdAs4W,15.0784,16.0624,0.9839
TcPb3C,63.7304,56.9626,-6.7678
AlSnN2O,28.539,23.5292,-5.0099
Pm(PrRh)2,22.1134,19.0681,-3.0454
ErNiBr,9.5153,14.9174,5.4021
Ti2Nb2Te7,53.1811,45.9112,-7.2699
Pr(Tm3Fe)2,19.4016,20.5936,1.1921
ScMnTl2,47.2698,44.3865,-2.8833
Pm(Tm3Fe)2,17.8809,20.9318,3.0508
AgCN2,39.7579,32.7671,-6.9908
Ac(PmCd3)2,25.1471,26.7605,1.6134
Ac8Te4AsPt3,58.841,53.6472,-5.1938
Co2IrSe,26.411,26.6776,0.2666
Na(PtAu)2,59.7879,47.6971,-12.0907
Rb2BaTaSe4,28.0724,23.8165,-4.2559
SrAg4F8,15.5752,12.7273,-2.8479
Pm2PuCd6,26.0486,27.6023,1.5537
VIr,57.4884,53.9012,-3.5872
Tb4SmAg5,28.4968,27.1816,-1.3153
IrN2O,6.7998,11.3133,4.5135
Pm(SmCd3)2,20.7673,22.4379,1.6706
NaPmBi,34.3649,34.6566,0.2917
Ho6Fe2Pd,14.8881,18.2301,3.342
NaVIr2Pt,67.9689,55.5069,-12.462
BaYAgB2,48.6299,39.8166,-8.8132
Rb2TeI,13.838,14.1652,0.3272
CeSc,8.9786,14.513,5.5345
Sc7Tl,10.7386,12.1466,1.408
DyY4In,18.2676,19.9662,1.6986
ErNbN2,33.3199,31.0481,-2.2718
Sr2Ag2Pd15,18.5127,19.0366,0.5239
Zr2ReTe,69.702,60.5335,-9.1685
BiTeRu,21.3201,26.2639,4.9438
NaZrTa2Mo,44.2511,40.1826,-4.0685
CuI2,17.4964,19.4314,1.9349
LaCo2Se,27.9281,22.6993,-5.2287
KMn2Ag,56.8106,45.3768,-11.4338
NaZn5Ag2,15.722,13.9812,-1.7409
HfNiGe,59.0874,42.8241,-16.2633
ScTe,26.4081,26.5806,0.1725
LaTbY4,22.3136,21.3743,-0.9393
NaPmBi,34.2951,34.6566,0.3616
PdICl,11.8262,12.7645,0.9383
Sm2ThCd6,25.4027,27.1428,1.7401
TaTlGaS2,59.8834,47.5082,-12.3752
NaPmBi2,39.151,39.7544,0.6033
Tb3ErCu2,16.0431,18.8197,2.7766
Sm(Cd3Au)2,25.8291,26.9801,1.151
Tc2GeSb,59.9819,51.9284,-8.0534
TiNbRu,25.102,28.6275,3.5254
KBaOs2,25.3476,26.1664,0.8189
SmNiGe,13.7396,14.7824,1.0428
Sm6Tc2Ag,34.9027,34.2483,-0.6544
CeSnRu,12.9339,16.719,3.7851
As2RuC,30.4805,24.6015,-5.879
NaLi2Y,7.6607,8.8499,1.1892
Tm6CuSn,37.7756,37.1338,-0.6418
Al2CuSb,15.6972,11.3527,-4.3445
AcPr5Nd4,13.9413,17.0546,3.1132
Na(VNi)2,53.0294,43.6048,-9.4246
LiYCuAg,25.8848,21.8563,-4.0285
Tm5Cu2Sn,29.6933,30.4302,0.7368
PrNiGe,7.0609,5.7887,-1.2722
Re(IrRh)2,44.9257,42.4081,-2.5176
Pm6Fe2Sn,13.0566,16.6615,3.6049
Cu3BiRu,19.6833,20.3661,0.6827
CuSiRh,24.7344,20.3453,-4.3891
PaAgSb,47.8196,44.3544,-3.4652
CsTaMo2,24.6337,27.1439,2.5102
GdGa4Rh,11.8029,11.4803,-0.3226
SiRhF2,22.9636,17.8257,-5.1379
NaCuAs2Br,15.1599,13.694,-1.4659
Na(FeI3)4,19.4773,19.2162,-0.2611
Y4TmTl,22.6953,25.5664,2.8711
InRhNO2,21.629,17.6942,-3.9347
Sm2AgRu,24.7184,25.8314,1.113
Rb2LiI4,13.8932,13.5425,-0.3507
LuNi,3.405,13.0651,9.6601
Ce6CdBi2,30.7021,32.6076,1.9055
Ba4RePb,24.3271,22.3946,-1.9324
Cd(ReOs)2,50.8201,50.0692,-0.7509
Rb2SbW,21.2882,18.9048,-2.3833
Sr2YTe,22.5415,20.8659,-1.6756
AlAgMo2,26.2852,21.6136,-4.6716
Zr2TcRu,75.8563,64.3601,-11.4962
YTeW2,43.3361,36.5895,-6.7465
LaSmYPu,40.849,38.8406,-2.0084
PdN2OF,18.8257,16.5032,-2.3225
VBi3Sb,67.9326,60.3884,-7.5442
HgSb3W,36.354,30.3418,-6.0122
V6Sn2NO,95.9416,73.3836,-22.558
LiZn(GeO3)2,8.2046,6.7156,-1.489
Na(InHg3)4,5.9377,5.9043,-0.0334
AcYIn6,25.4881,25.6741,0.1859
Rb3ScRe,29.5029,22.1685,-7.3343
NaMnS3,59.7858,46.0594,-13.7264
Na3TaIn3Se8,36.2965,30.5608,-5.7357
Sm2ErRh2,34.8436,31.4111,-3.4325
AcTmPt2,61.0528,49.0815,-11.9713
Rb3NiW,14.92,11.7983,-3.1217
Cu4TeIr,19.0187,20.5229,1.5042
Na2(PaSe2)3,47.8542,43.3671,-4.4871
Ba(AgPb)3,33.0884,31.3538,-1.7345
Na3Zr3TaSe8,51.5489,41.0835,-10.4654
Y2ErTh2,37.9053,40.697,2.7916
InAg3N,25.15,20.7458,-4.4042
Nd5(YIn2)2,22.1336,22.579,0.4453
TaNi3Pb,23.1488,25.0771,1.9284
ScTaPb2,91.0002,81.3376,-9.6625
Sm(BiRh)2,40.0913,36.1601,-3.9312
SmTmAl,19.5223,22.7181,3.1958
Li2Pm2GaPd5,10.3019,12.9864,2.6844
InAgP2,15.1156,14.7917,-0.3238
YSbIr,33.7362,34.1492,0.4129
ScTa2Pb,86.9569,77.6258,-9.331
ScTa2Pb,86.848,77.6258,-9.2222
YHo4Th,32.2041,36.1162,3.9121
BeRhAu2,35.9172,34.1372,-1.78
CsLaO2,25.7464,27.2598,1.5133
YSbIr,33.8412,34.1492,0.308
Np2NO,34.4521,37.6753,3.2232
BaLiMn,36.5884,29.7333,-6.8551
Pu6CdSn2,55.0786,56.4437,1.3651
LiSmLu,19.7727,22.1245,2.3518
NaLaTi2As,30.8163,22.7359,-8.0805
YSb2Ir,36.7538,33.4655,-3.2883
In2PbF4,16.6217,16.3063,-0.3154
Ac4Si2Pt5,65.8347,51.986,-13.8487
LiSb2W,32.4493,29.3935,-3.0558
Rb3Sc3TaSe8,42.5562,34.4452,-8.111
ZrScCu,51.1537,41.6345,-9.5192
InPbF3,18.3145,17.6243,-0.6902
Be2CrCu,6.5834,6.6008,0.0174
CsTe(IO4)2,21.6601,18.3733,-3.2869
Ca2SbPb,24.5141,23.7735,-0.7406
Y2SbIr,28.4361,29.2512,0.8151
Ca(SbPb)2,37.2025,33.5764,-3.6261
Ca2InC,19.1056,17.5618,-1.5438
In2SiW,23.969,24.2699,0.3009
Dy3Y6TmSc2,17.2126,18.6706,1.4579
Co2ReSe,25.6049,25.5046,-0.1004
SrAlSe2,27.9568,24.4387,-3.5181
CaY2Zn,17.2044,13.7298,-3.4747
CsSnF3,11.3725,10.8889,-0.4836
InNi,12.9336,15.8663,2.9326
Ba2Cd6Pb,18.3449,19.2173,0.8724
ErTm2TlO,27.1732,30.8272,3.654
LiTaSb2,31.744,28.1924,-3.5516
TcSeN2O,30.1964,25.4588,-4.7375
RbNiBi3,36.2574,36.3231,0.0657
NaSm(MgH4)2,6.3219,5.8035,-0.5184
Ac3Zn2Pd9Pt,30.1325,29.5563,-0.5762
Ta2BeAg,29.1802,30.0069,0.8268
Pu2HfCd6,44.7205,41.4632,-3.2573
GaTcNO2,33.8608,28.7793,-5.0816
SiP2C,19.8812,14.859,-5.0222
ZrAuSe4,56.792,46.6618,-10.1302
Ta2BeAg,29.3951,30.0069,0.6118
Ca4In2C,17.1993,15.4729,-1.7264
SbAuC3,57.7268,43.2663,-14.4605
Hf2RuW,85.6194,65.9147,-19.7047
VAgSb3,59.3451,45.8502,-13.4949
Cu2Mo2P,21.9861,14.9627,-7.0234
Co2ReSe,25.5539,25.5046,-0.0493
SmErLuPa,39.1888,42.7404,3.5515
SnRhPb,30.3195,28.0826,-2.2369
CsNb(SbO4)2,30.9344,27.0031,-3.9313
YPaZnIn,29.27,30.3045,1.0345
Rb(SeI)2,26.6165,22.4454,-4.1712
AgRuRh2,47.8084,37.1752,-10.6332
Sn(RhPb2)2,47.6167,43.9172,-3.6995
Co2ReSe,25.6741,25.5046,-0.1695
KBaBr2,10.4207,10.4452,0.0245
Ce6Tl2Cd,29.9412,31.7175,1.7764
Th2CdIrPb,42.7625,47.8728,5.1103
Sn(PtRh)2,53.6678,37.8671,-15.8007
LiLa2Br2,28.4009,19.8967,-8.5042
Cd(SnI3)2,21.5568,22.1332,0.5764
CsSrNb,50.4705,44.6348,-5.8358
SmTm2Al3,11.4025,15.8827,4.4802
CoOs4W,78.4177,68.6026,-9.8151
CeYAgIr,28.0221,29.4829,1.4607
DyPa2NbN4,36.8933,36.2471,-0.6462
VAg3Sb,54.6224,42.4209,-12.2015
Ge2PPt2,34.896,25.2407,-9.6553
YTeIr2,35.5651,39.7056,4.1405
BeCuPb,25.8402,24.831,-1.0091
Y(SbIr)2,37.8587,35.9472,-1.9116
BeCr2Cu,10.4952,8.9355,-1.5597
Zn4AgAu,18.135,18.0256,-0.1095
CeZn4Ag,14.5965,14.7075,0.111
Ac8Ge3PtBr4,41.8715,41.3407,-0.5308
InRe2Au,36.9705,40.3499,3.3794
Ce2TmAu6,39.8075,41.6239,1.8164
AlZn2In,7.5898,9.2849,1.6951
Ce2TmHg6,8.3893,9.744,1.3547
Zn(GeBi)2,24.0454,25.7385,1.6931
Nd3Ni,20.0957,23.4246,3.3289
Ba2SrW,22.6629,15.9061,-6.7568
AlZnIn,3.0651,6.3135,3.2484
Al3SeI,18.8411,15.3271,-3.5141
Rb2NaSr2,10.2315,9.4899,-0.7416
Cu2IrC,30.8954,27.9015,-2.994
Tm2ThRh2,37.4603,35.1985,-2.2617
TiPS2I,30.5392,26.6481,-3.8911
SrTe2NO,32.113,28.5063,-3.6067
Ce2Pt2Rh,33.2886,22.5846,-10.7039
Al3Zn3In,5.8782,6.8444,0.9662
Er2Tl2Rh,41.4483,40.8109,-0.6374
AsPCl4,12.1155,10.3526,-1.7629
Ce6HoPa2,35.2547,37.3855,2.1308
ZnTc2Pb,62.0726,56.0313,-6.0413
ZnTcW,21.9818,26.2267,4.245
Pa2NbAlN6,27.2693,26.8027,-0.4666
ZnTcPb,51.9967,48.2537,-3.743
ZnTc2W,58.0583,54.2942,-3.7641
ScAgN2O,59.9889,52.432,-7.5569
Zn2TcPb,40.5442,38.3679,-2.1763
Zn2TcW,36.9105,36.848,-0.0626
Th2CuRu,39.1403,41.8621,2.7218
Zr2OsBr,62.681,53.9414,-8.7397
Ti3SbRu,15.3555,15.0921,-0.2634
TcPbW2,56.2819,57.0599,0.778
YPC,36.5479,27.4543,-9.0935
Hf(PW)2,128.1102,100.7898,-27.3204
TaCuSi,20.755,22.225,1.4699
KCr2P,26.3836,21.5761,-4.8075
Ac2InSi3Pt4,54.185,40.8285,-13.3565
AcInPtI,43.5048,41.3928,-2.112
Si2Os2N,32.6298,27.6046,-5.0252
Te3Se,44.0148,38.5092,-5.5056
TcPb2Se,57.7067,53.6274,-4.0793
Pm2NdTl3,33.4451,37.4268,3.9817
TcPbSe,65.6549,58.9643,-6.6906
CeThZn4,19.9781,22.1489,2.1708
Sr2La2Ir,33.6768,24.5696,-9.1071
Fe2SbPb,37.0182,32.442,-4.5762
Zn2Sn2Bi,19.6111,20.9334,1.3223
CeTmZn4,14.0374,15.8752,1.8378
Zr2OsBr,62.1641,53.9414,-8.2228
YHo3Tm,20.9536,27.3285,6.3749
I3O8,13.4657,9.7684,-3.6973
SbPbSe2,48.3083,42.2961,-6.0122
Ac2PrPtO5,18.2472,15.6314,-2.6157
LiMnIr2,46.6696,44.2899,-2.3798
Fe4PbSe,22.0499,18.2553,-3.7947
Y3Mo5N8,31.8326,28.3515,-3.4811
Li4YP2,9.0404,5.5461,-3.4944
LiYZr2,53.1203,43.6172,-9.5031
LiMnIr2,46.546,44.2899,-2.2561
TiINO2,19.4736,16.3851,-3.0885
Li2TbY,10.4925,12.8055,2.313
LiYZr,37.6908,33.2249,-4.4659
TaCo2Se,45.5585,35.4554,-10.1031
Li2SiRu,14.5027,12.5993,-1.9034
ZnIn4Ga,15.9373,17.0058,1.0685
NaTa3Be,30.2689,30.2968,0.0279
Cd3AgSb,27.1357,24.1093,-3.0264
SiTcNiRh,25.8357,33.9225,8.0868
Ca2AcTb,25.5507,27.9914,2.4407
Ru3AuN,42.0376,39.1331,-2.9045
TaBeV,63.6465,59.2464,-4.4001
Tl2PtBr,51.1873,45.2926,-5.8947
CePu4Ge2Pd,43.329,45.5755,2.2465
SnBi2Os,43.6767,45.963,2.2862
CaAc2Pt,50.7077,46.0568,-4.6508
LiNdDyAg,20.8891,21.6158,0.7267
TlPtBr3,36.3413,31.1325,-5.2087
TlPt3Br,67.6665,49.2098,-18.4567
HfNb2PtN,102.5915,80.5449,-22.0466
ZrNb2CdN,79.7979,65.643,-14.1548
GdPaAs,35.0916,38.3684,3.2768
SrAlAu2,27.6875,28.7211,1.0336
ScCd3Re,45.6392,38.8705,-6.7687
CaTmMg,12.8557,14.7405,1.8848
SrTlNi2,23.2992,22.7459,-0.5533
LiSi3Ru,19.4942,13.7456,-5.7486
NbSiPb,63.3215,56.5807,-6.7408
Cd2GaRe,51.7178,44.1299,-7.588
LiSiRu,19.5301,8.2966,-11.2335
Li2SiRu,10.3995,12.5993,2.1998
FeRuW2,31.7401,31.5853,-0.1547
Li2ScTe,13.4921,13.1388,-0.3533
Ta2PW,86.1769,77.4322,-8.7447
V2AgSb2,70.2736,54.4689,-15.8048
CaAc2PtO5,25.7368,23.5079,-2.2288
GaFe3Pb,22.9741,18.0858,-4.8883
CuRuN2O,25.4544,22.3936,-3.0609
Cs4CoO5,10.0524,11.5867,1.5343
NaAgBi3,44.2377,42.5198,-1.7179
GeRuN2O,26.0854,23.2761,-2.8093
NbInN,46.2996,41.5676,-4.732
LiHo2Ta,24.0537,27.652,3.5983
YV3C,102.7928,78.317,-24.4758
Er2InSn2,10.0612,14.5042,4.443
NaNbPdBr2,42.3923,35.9634,-6.429
Cd(InCl3)2,5.517,6.3544,0.8374
Fe2Te3Pb,28.2542,26.1742,-2.08
RuRhNO2,33.5853,27.4107,-6.1746
Ba2NaPuO5,1.3126,3.4043,2.0917
Zn(CoCl3)2,3.7182,2.649,-1.0692
Tl(CoCl3)2,5.6529,6.0417,0.3888
Sr(CoCl3)2,4.1187,5.095,0.9763
ScTa3Sn,72.0418,64.774,-7.2678
TaSnPt2,58.7103,46.6963,-12.0141
La3ErIr,45.3827,35.1133,-10.2694
Dy4B5C2,28.7806,25.956,-2.8247
ErCrO4F,0.3822,2.2914,1.9092
Pm6Nd2Y3In,22.2305,23.4208,1.1903
Ca2PuCl6,9.8694,11.9936,2.1242
MgTlTe2,34.0751,33.3219,-0.7532
PrHfNO2,22.5409,14.3607,-8.1802
CeY2(HoBi2)3,37.9196,39.737,1.8175
FeTePb2,39.5239,38.1442,-1.3797
Zr5FeTc4,85.9507,71.1715,-14.7792
LiSbN2O,22.8026,19.3811,-3.4215
Pr2Sc3Rh2,14.2834,12.0833,-2.2
InFe2Sb,29.3459,23.6397,-5.7062
Ac2Cu2Pt5Au,57.4239,44.8317,-12.5922
NbV2ZnN,88.9623,70.4736,-18.4887
Li2ScTl,14.9162,16.5812,1.665
Co2PtCl6,9.7934,7.603,-2.1904
Co2PdCl6,2.9072,3.268,0.3608
Co2SnCl6,1.9026,2.5782,0.6755
Cd(ReOs)2,50.8642,50.0692,-0.795
Na3U(AgSe3)2,40.437,33.6341,-6.8028
CuSiW,21.645,23.8092,2.1642
ScSb2W,35.1888,31.0752,-4.1136
PaCuTc2,64.9783,60.7552,-4.2232
CuSiW,22.1108,23.8092,1.6985
Zr2Fe2Tc,57.9635,48.8324,-9.1311
IrPbBr,46.9744,43.705,-3.2694
Co2WSe,26.0906,25.1856,-0.905
CuSiW2,25.8784,27.7961,1.9177
HfMo,27.144,24.4833,-2.6607
TbGe4Pb,19.2469,20.8751,1.6282
Fe2CoCl6,4.8049,3.5789,-1.226
SrTaTc2,60.3481,49.6499,-10.6982
ErZrIr2,52.842,50.6671,-2.1749
Ir2PbBr,46.0329,44.1957,-1.8372
Ac2La2Zn3,36.3209,33.2016,-3.1193
SrHf2Pd,74.2632,55.1786,-19.0845
CuSiW2,25.6961,27.7961,2.1
EuEr2Fe,21.8044,24.8936,3.0892
Ga(CuCl3)2,2.3238,2.4937,0.1699
LiTa2Cr,46.5298,39.7541,-6.7757
KY2Sc,11.6759,13.5547,1.8788
In3PF,14.2507,14.4345,0.1838
In(CuCl3)2,3.3004,4.1107,0.8103
CdSb2Mo,31.3458,27.8663,-3.4795
Ac2InGe3Pt4,52.5734,41.7018,-10.8716
ScSb2W,35.263,31.0752,-4.1878
MnInAg2,45.5925,38.133,-7.4595
Ba2NaIn3Sn4,16.355,16.7365,0.3816
CsLi2SmBr6,17.7146,17.6712,-0.0434
Tl(ZnMo)2,14.8011,18.4019,3.6008
CsLi2TbBr6,17.8772,17.4846,-0.3926
KCu2HgI6,13.6205,14.1599,0.5394
Cs3ZrCu,36.7789,32.3804,-4.3985
MnIn2Ag,42.7895,36.9852,-5.8043
NaAc2BiO5,14.733,18.5091,3.7761
PPb3C,46.135,41.9585,-4.1765
TmSc3Mn,29.1914,26.7319,-2.4595
Mn2InAg,62.6585,52.1566,-10.5019
Zr6Pd3O2,67.6562,56.4055,-11.2507
U(GaCl3)2,6.6221,9.1613,2.5392
Ir(RuW)2,46.1433,42.2575,-3.8859
Ga2SnCl6,2.7073,4.5118,1.8045
TlCuNO2,12.5617,13.5216,0.9599
InFeP3,20.959,18.4634,-2.4957
TeI2,27.214,27.874,0.66
SiPt3C,70.3149,46.3983,-23.9165
TmCu2H8Au,12.2607,12.453,0.1922
Ca2TcI,31.7917,28.9362,-2.8555
KBi2W,35.8919,39.5442,3.6523
Pu2GaCl6,18.1864,19.1501,0.9637
Li3YZr,23.6808,19.8039,-3.8769
Er(Tm3Sc2)2,21.5483,22.999,1.4507
Rb3CaTc,22.078,18.0019,-4.0761
Y2Zn(Ni4P)3,30.9642,26.1029,-4.8613
LuSiRu,25.2049,23.0751,-2.1299
SbOs5,42.6312,45.9267,3.2955
CaYMo4,22.0726,19.3497,-2.7229
LiZrSb2,41.9381,34.814,-7.1241
SiPdRu,20.4772,18.2003,-2.2769
Th(ICl3)2,14.1368,16.8017,2.6649
Sm2Er3Mg,23.8438,26.4101,2.5663
SiPbBr2,30.0789,25.0738,-5.0052
Si2PbBr8,18.037,16.3185,-1.7186
Pm2SbSe,34.4461,31.8778,-2.5683
Si2PbBr,31.4944,24.7849,-6.7095
SrZrNi2,35.2488,29.8005,-5.4484
Nb4ZnGe,89.112,73.7647,-15.3472
SiPb2Br,40.5519,35.7856,-4.7663
CsRbBi4,40.5205,41.2743,0.7538
Sr9(CrN4)2,10.5541,10.391,-0.1631
NaPrTh,28.7958,29.9548,1.1589
ThCuP2,17.1996,19.776,2.5764
Nb(TeAu)2,60.1267,54.5027,-5.624
BaY4Te,32.9124,29.7013,-3.2111
Pu2InCl6,19.393,20.0897,0.6967
ScAs2,19.4221,17.3945,-2.0276
LiZrN2O,32.9762,28.1071,-4.8691
ZrTe2W,55.1447,49.5406,-5.6041
Cs2Rb2Ba,9.6501,9.745,0.0949
Sr3Cd5Br12,6.3344,6.2945,-0.0399
SrZrNi2,35.5626,29.8005,-5.7621
NaAc2CdO5,11.4044,14.6837,3.2792
ZrTe2W,55.761,49.5406,-6.2204
SrLi3Pb,5.953,8.8733,2.9203
LiInRh2Au,34.5413,28.1014,-6.4399
Zn6Sb,13.4818,12.4183,-1.0635
CaSi2Pb,26.8195,23.174,-3.6456
LiInP,15.1002,12.6899,-2.4103
KSr2Re,26.4756,22.7882,-3.6875
TlRe3Sn,40.9662,42.1858,1.2196
HoThSeN,27.0653,30.3425,3.2773
LiY3,10.7004,12.6686,1.9682
GdTlNiAg,30.5658,29.8984,-0.6674
KTeP2,15.438,14.422,-1.0161
VBRu,21.8199,22.0381,0.2182
Re2PNO,88.0964,78.7446,-9.3518
LiCeInIr,22.9229,24.5235,1.6007
Be2MoPb,21.7933,19.9263,-1.867
DyB3C,26.6283,22.7689,-3.8594
Be2MoPb,21.5972,19.9263,-1.6709
KOsW,116.68,91.7245,-24.9555
Zn3GaSn,10.7804,11.4479,0.6674
KOs2W,98.6036,81.0429,-17.5607
AcTb2Sb,40.263,40.6963,0.4333
YHf2Ag,83.5261,62.8474,-20.6788
CaScNO2,70.5071,61.6099,-8.8973
ScBeSi3,32.612,25.5425,-7.0694
GaSeI3,25.155,23.6485,-1.5064
Mg2SiRu,12.3067,10.422,-1.8847
CaSbNO2,34.3574,30.7698,-3.5877
KSi2Os,21.0966,19.3125,-1.7841
Fe4HgW,11.5816,11.5409,-0.0407
FeHgW3,28.9255,29.8713,0.9458
Na2BF6,5.2668,4.3401,-0.9267
Cd2ReSb,60.6305,50.2644,-10.366
Pr2AgSn,15.7084,13.8719,-1.8365
Sn2Au2Se,33.182,32.6182,-0.5638
SrCdCo2,14.4095,13.3398,-1.0697
Hg2W,9.6008,13.2096,3.6088
LiInRh,24.6602,19.5169,-5.1433
Y5Cu5P8,19.8487,14.0468,-5.8019
Ac2TbSb,50.2411,50.4975,0.2564
Y2ReP6,9.8026,5.2462,-4.5563
Sr4MnN4,10.6685,10.7331,0.0646
Si3PdRu,19.9218,13.9589,-5.9629
SrNdSn6,19.8705,20.9646,1.0941
GdZrGa2,35.6722,31.9461,-3.7261
AcTbSb2,44.3795,41.3862,-2.9933
LuI4,21.1878,23.392,2.2042
Ba2LiBr,11.8099,11.1318,-0.6781
NaErTi2O6,5.9314,6.6025,0.671
Sr2PmCl6,9.48,11.2702,1.7902
LiNd(InAg2)2,24.1205,21.4639,-2.6566
CaGdSiHg,16.8216,14.9358,-1.8858
MnRh3C,61.4527,44.9739,-16.4788
LiYC,31.3381,26.9166,-4.4215
Cs2As2Pd2Pt,27.2539,24.7192,-2.5347
CrWI2,19.4162,20.671,1.2549
Li2InFeIr,28.0539,24.5043,-3.5496
TlTc2,71.9233,69.4871,-2.4362
HfZn6,27.7924,22.1559,-5.6366
Sr2NbAl,40.6031,36.3263,-4.2768
SiTcNiRh,33.0244,33.9225,0.8981
Cd2SbTe,31.4727,28.4618,-3.0109
SmMgZn,9.682,12.3128,2.6308
CsLaPbO3,23.8731,23.8744,0.0013
ZrTaAl2,34.9977,33.2323,-1.7654
InFe4W,12.9034,13.0758,0.1723
Ce2PdBr8,13.2986,14.8846,1.586
Zr2TaAl,58.9224,50.4496,-8.4728
AcTa(PtO4)2,23.2243,20.0503,-3.174
Dy(BRu)3,8.4227,7.1861,-1.2366
TcC,31.2745,23.112,-8.1625
Tl8In2Pb,45.448,46.2453,0.7973
NdMg2InH6,7.2389,7.6356,0.3968
In4HIr2,23.7261,25.9131,2.187
NbSiPb3,64.102,57.3449,-6.7571
SrMgPRh,12.4458,11.7076,-0.7382
Tb4MnH2,24.9167,24.5464,-0.3703
NbCu3Si,37.8198,31.1448,-6.6749
Cd2SbW,31.0625,30.2708,-0.7917
Li2CdSe,16.7227,15.4291,-1.2936
InHIr2,27.5376,30.1833,2.6456
Cd(SnBi)2,30.9124,32.5393,1.6269
Nb2Cu2Si,56.3514,47.0146,-9.3368
Pt4W5,60.986,50.8563,-10.1296
Ti6H5Pd2,4.6704,6.3653,1.6949
CdCoAu4,36.7588,37.716,0.9572
Cd(SnBi)2,34.1482,32.5393,-1.6089
TaCd2Ir,29.8178,33.4409,3.6232
SrCo2Ir,22.3231,20.6322,-1.6908
SrLaCo2,19.6304,16.8486,-2.7818
NdThCuNi,37.3568,36.4098,-0.947
Er2Hg2Ru,14.4276,17.2264,2.7988