Formula,E_hull_DFT (eV/atom),E_hull_ML (eV/atom),Delta (ML - DFT)
K2Tm2Bi2Se,33.7936,33.303,-0.4907
AlTl2BiO6,9.8069,13.3726,3.5656
TaAg2AsO6,10.7317,9.3292,-1.4024
Te3AsPb,38.7705,37.1719,-1.5986
MnCrCd2,36.9808,31.3256,-5.6551
SrLa2Nd,35.5071,27.787,-7.7201
Cs2KAlBr6,11.7826,13.0824,1.2998
SmGaAu,21.6984,25.2212,3.5228
LiMnAu3,48.6673,44.3586,-4.3087
Ta2InCo,46.2441,38.9683,-7.2758
Cs2InSn,20.2132,21.7351,1.5219
YPaPt,32.6437,33.4199,0.7762
Na2TbCeS4,39.2144,31.5356,-7.6788
Sm3(GaAu2)2,30.5669,32.1076,1.5407
SiPbF3,24.5013,22.3126,-2.1887
YLuTlRu,32.8875,31.7025,-1.1851
Ca2CeCoO6,15.253,14.1381,-1.1149
AuI,27.687,30.6367,2.9497
Cs(SmAu)2,29.8671,32.6841,2.817
CsTeOs2,39.4741,40.6472,1.1731
FeAg2Pb,31.6519,26.9799,-4.672
Li2AcPtF8,16.4685,15.0338,-1.4347
YSc2Se,17.6244,17.1452,-0.4792
Nd3Pb,31.2924,33.493,2.2005
Ca2ErTaO6,14.8791,16.7084,1.8293
FeAgPb2,36.9059,34.7637,-2.1422
Ca2FePbO6,19.7385,18.4293,-1.3092
RbPPd2,12.2421,11.2855,-0.9566
AcTbInPt,49.5153,44.7301,-4.7852
Sr3Fe5Cl12,0.0,0.0,0.0
InFe2Ni,25.4869,18.1687,-7.3182
Sr6H2Pt,15.6852,14.009,-1.6762
Ca2FeRhO6,18.9655,16.5639,-2.4016
Ca2GaIrO6,22.7706,22.0659,-0.7046
Zn2TeBr,14.9805,16.9363,1.9559
Ta2PbW,41.4234,45.9643,4.5409
Ca2HoOsO6,18.4107,17.9841,-0.4266
CdCo2Au,21.0242,22.1185,1.0942
RbPu(CuO3)2,1.1644,2.3559,1.1914
Cu2RePd4,18.8235,20.4885,1.6649
PaCu2RhO6,12.064,12.8936,0.8296
Zr2Al2Rh,42.7118,36.0864,-6.6254
TaPbW2,42.3209,47.0784,4.7575
BaCa2Tc,26.2734,22.9837,-3.2897
Cs3OsO4,13.4914,16.2816,2.7903
AcInGa2Pt5,60.4849,45.4212,-15.0637
Sm2TcAu,47.2873,45.4542,-1.8331
RbSN2,25.2094,20.2472,-4.9622
Ca2NdPtO6,21.8504,19.7829,-2.0675
PrMg2CoH6,3.984,3.6865,-0.2974
Zn2Bi2P,22.9808,24.3748,1.394
Ac3CdSi2Pt9,69.0944,51.7317,-17.3628
NaAcTePt,54.3286,46.7003,-7.6283
AcSbPt,65.1529,54.3034,-10.8495
SeBr2O,18.6993,16.9041,-1.7951
Ca2InPdO6,23.9337,22.2576,-1.6761
TlCd2Re,62.0383,51.7015,-10.3368
ZnCrP,38.3329,31.933,-6.3999
Ca2ErPdO6,20.8022,20.2016,-0.6006
Tm5Tc,40.9647,40.9017,-0.063
LiSbRu,14.9206,16.0248,1.1042
YGa2Ir,18.5514,21.1806,2.6292
Ta2BeCd,20.6725,24.2148,3.5423
TlCd2Re,62.0255,51.7015,-10.324
ThPa5,67.1899,70.5639,3.374
SmZrGaAu,44.2948,42.2176,-2.0772
Os2PdW,99.0221,82.5494,-16.4727
BaCa2ScRh,15.3791,10.9542,-4.4248
Y3HoIn12,20.6566,20.1364,-0.5202
Sr3Ag5O12,0.0,0.0,0.0
RbRePd,21.9681,23.287,1.3189
Zr2Al3Cu,35.7098,31.4213,-4.2885
ZrMnPd,55.804,48.0342,-7.7698
AcSbPt2,71.5433,56.3494,-15.1939
LiSmAu,23.7541,25.8172,2.063
Zn2FeGe,10.5026,8.5791,-1.9235
NpScTc2,102.6736,88.796,-13.8775
Ti2P2Rh,4.4928,5.3043,0.8115
Ac2Cd5Pt4,52.4778,43.0533,-9.4244
FeCu2Au,34.0706,30.5511,-3.5195
Ca2PaVO6,36.0135,32.8219,-3.1916
Ac2SnPt7,76.9294,58.0488,-18.8806
AcEuPt2,66.9682,54.3818,-12.5865
Ac2PtPb,67.1628,62.3974,-4.7654
Ba2Sn2Ru,9.1387,9.4907,0.352
CdMoAu2,32.3495,34.5123,2.1628
SmPuAu2,47.4585,49.7992,2.3407
Ti2PRh2,14.1515,12.2846,-1.8669
CaCo(AsO3)2,11.2065,10.4083,-0.7982
CaCr2AsO6,13.2617,12.2476,-1.0141
Bi3PRu,37.4276,38.4894,1.0619
LiReHg4,8.8936,9.2455,0.3519
Ac2LaPt,67.0556,57.6838,-9.3718
Zn3CdSe4,28.6911,24.939,-3.7521
Y2Ga3Ir,10.2068,13.6632,3.4564
ZnCd3Se4,31.6174,27.8552,-3.7622
LaIr3,37.5041,41.3919,3.8878
Te2PAu2,36.9266,36.7384,-0.1882
TePAu,31.4405,32.8957,1.4552
Zr2AlCu,45.9266,38.9866,-6.94
LiHfAu,58.4983,50.6918,-7.8065
CaPr2PtO6,14.5777,10.5736,-4.0041
ZnCdSe2,31.0352,26.885,-4.1502
ZnCd4Se,22.3092,21.3646,-0.9446
Tb2FeRhO6,4.0737,5.1636,1.0899
NaSnOsC2,42.7897,34.0762,-8.7135
Ni2RuAu,19.2124,19.3557,0.1433
InTeO2,23.6116,22.651,-0.9606
NiAs2Ru,22.6159,18.4707,-4.1451
In3TeO,27.0809,25.3971,-1.6837
LiIn(TeO4)2,17.3471,15.3423,-2.0049
BaGe3Te,15.2757,15.4806,0.2049
Cr2FeWO6,12.6808,11.3529,-1.3278
PtPb3C,62.5384,53.0035,-9.5349
Cr2FeTeO6,12.0168,9.7715,-2.2453
BaGeTe2,22.99,23.4324,0.4423
Ce5DySb4,32.548,30.0232,-2.5248
TbY2ErIr4,31.912,35.3479,3.4358
Ca2PdRh2,19.7015,16.2462,-3.4553
Rb3AlBi2,16.8971,17.4565,0.5594
HgPAu2,24.7801,25.9037,1.1237
AcGa5Pt2Au,36.5222,31.1773,-5.3449
Cs12AsO4,17.2586,17.9561,0.6975
YVSbTe2,55.1201,45.8906,-9.2295
ThSnPt,44.2008,51.2359,7.0351
SmAlHgAu,18.3635,20.701,2.3375
CaY6RuBr12,31.4333,27.6247,-3.8086
AcTm(SiPt)2,49.538,39.5251,-10.0129
Hf2CoPt,87.6724,63.0761,-24.5962
Tl(PRh)2,30.7485,25.8941,-4.8544
BeSiTe,21.1844,19.6284,-1.5559
LiLa(SmAu2)2,35.7022,35.3582,-0.344
Sr(Cd2Ag)6,23.2113,20.4133,-2.798
Y2TeBr,19.3432,20.2657,0.9224
TiCr2Pb,24.5606,25.0678,0.5073
SmAlAu,15.0071,21.8362,6.8291
Y3Ga3Os2,19.9552,20.7971,0.8419
LiBe2Ni,3.4031,3.8383,0.4351
CdBi(PbO3)2,12.4558,15.1544,2.6986
CdOs(PbO3)2,10.167,13.8068,3.6397
LiCeSb2,23.128,21.0055,-2.1225
TlTcRh,65.3557,55.8123,-9.5434
HfNbCr3,63.6869,49.1403,-14.5465
RbPm(CoO3)2,0.0,0.3032,0.3032
SrIr,0.0,4.3646,4.3646
Pm(NdSi)2,14.4447,15.4057,0.961
CsCaV,50.8466,41.7504,-9.0962
AcAs2ClO6,2.0893,3.5407,1.4515
LaPt7,84.4177,58.0622,-26.3555
LiBe2Os,12.4901,13.7885,1.2984
AcSmAu4,45.9453,47.9539,2.0086
NaNi3H5,3.385,2.2659,-1.1191
ZrCuRh2,50.2043,39.7955,-10.4088
LaRe3,34.7905,35.7196,0.9292
ErCo2GeO6,5.5921,6.521,0.9288
Ca2Ti2Pb,10.8647,14.1528,3.2881
Cs2BaIrO6,8.7407,10.7468,2.006
Sm(CuAu2)4,32.8605,34.4715,1.611
Sr3Cd5Ge2,16.0213,15.1923,-0.829
TaGaSb2,54.7629,43.5963,-11.1666
Pm2CoAsO6,11.4547,12.2905,0.8358
Sr2Ho2Mg15,6.4073,7.3217,0.9144
Sc3TaSb,64.8153,52.4543,-12.361
Y2BiTe,30.2268,32.2185,1.9917
CrPRu,14.9112,15.1866,0.2755
Ac2PuCoO6,10.2549,14.3824,4.1275
ScMnRhAu2,50.7832,43.0963,-7.6868
Sr3CaBi3,26.8483,27.9813,1.133
CeYS2,21.6736,21.4128,-0.2608
CrPRu2,34.6168,33.2728,-1.344
Sr12TlGa6,13.5843,14.2403,0.656
Rb2CrMo,6.2318,7.7595,1.5278
RbCr,0.0,0.0,0.0
TiCuPb3,34.5331,35.5896,1.0565
TmU4In15,30.0674,31.5014,1.434
Ba2VPbO5,12.4158,10.9194,-1.4964
Cd4P12I,8.8668,9.3747,0.5079
Y2NiTe,73.8977,64.5477,-9.35
FeGeTe,12.3883,16.0564,3.668
Y2HfTe,46.9298,39.0984,-7.8314
Sm4Te3Au,32.9704,33.6187,0.6484
ZrSiSb2,50.7927,39.9155,-10.8772
PuZn(CoO3)2,14.3378,14.2339,-0.1039
DyCr2GeO6,6.8194,7.0389,0.2196
ErCr2GeO6,7.7743,7.295,-0.4792
TiRuCl2,2.6259,4.9956,2.3697
Cs2NpVO6,23.3372,21.3718,-1.9654
HfCr2InO6,21.8405,17.6598,-4.1807
Y2(ScSe2)3,28.4284,24.3017,-4.1267
InF,1.0063,2.816,1.8096
Cs2Sr4P,14.9431,16.0059,1.0628
K2AuF,18.8811,19.0232,0.142
LaHSCl2,22.5214,16.4791,-6.0423
Cs3Y3ThS8,40.436,33.6729,-6.7631
HoHfCr2O6,21.3843,16.0278,-5.3565
GaCo(GeO3)2,3.5261,3.8501,0.324
Co2BiSe,29.2162,28.897,-0.3191
Tb3PmPrSc,13.5917,15.5714,1.9798
Ba2AcSb3Pt4,54.8792,41.3078,-13.5714
Er5InGa2,18.0242,21.4511,3.4269
Nb3BiPt,114.6227,93.7177,-20.905
Co2BiSe2,32.5558,29.9548,-2.601
NdTmIn6,21.3804,22.7187,1.3383
CeHo2Tl,32.9507,35.0206,2.0699
TbZrInCu,37.7169,35.6402,-2.0767
Fe2CoHgPd,18.7397,14.3583,-4.3814
Rb3Zr,27.0287,21.6988,-5.3299
Ce2ScTi,15.2467,18.6291,3.3824
AcPmErPb,42.7469,45.3802,2.6333
ZnPb,27.8556,30.1143,2.2587
In2Ag2Bi,28.4696,26.8227,-1.6469
ZnIrBr2,23.022,19.7634,-3.2586
Ac2TmCoO6,6.9922,11.0787,4.0865
CoPb2WO6,10.7985,13.3363,2.5377
CuW,22.9874,28.2692,5.2818
Ga2SnBiO8,34.2263,28.809,-5.4173
P(IBr)2,16.8837,15.8696,-1.0141
CeCr2FeO6,9.9221,8.7089,-1.2131
Y2ScSe,19.4674,20.6966,1.2292
Tb2NdSi2,15.2635,16.4614,1.1979
PbI,29.7121,32.3087,2.5966
Ba2CuRhO6,0.0,0.0,-0.0
HfCr2FeO6,20.6683,15.6279,-5.0404
Pr2CrMoO6,10.6756,9.9717,-0.7039
RbThMg,21.7763,23.4729,1.6966
SmCr2GeO6,6.4406,6.7137,0.273
Cr2SnGeO6,25.1683,20.3823,-4.786
NbCr(PbO3)2,25.5674,23.2955,-2.2719
AcAlPt3,60.4745,46.1777,-14.2968
Ca9B2(CCl2)4,11.4155,8.3216,-3.0939
AcZrCu4,31.7197,30.2335,-1.4862
ErLuTh,43.0117,46.8037,3.792
Ac4Te2Pt,60.7993,56.6914,-4.1079
Cs2CeBeO4,3.4111,5.2505,1.8394
RbMo2P,12.3343,9.8962,-2.4381
AcCr2SnO6,30.1425,25.5336,-4.6089
Sr2WO5,0.0,0.0,0.0
CrFe2PbO6,13.5018,11.408,-2.0938
Sr3Tc5N12,2.593,0.1115,-2.4815
Cd2BiSb,34.5782,32.9969,-1.5812
YCr2SnO6,32.6435,26.7602,-5.8833
ZrZnGaCu,31.7059,27.6421,-4.0638
Ta5Pb,39.5748,44.5421,4.9672
Pt2RhSe,63.6244,46.2569,-17.3675
Zn2Hg2Br,4.4201,5.1615,0.7414
RbSi2Rh,15.0798,10.0468,-5.033
Cd12Sb3P5,11.6284,12.1608,0.5324
AcHoPt,54.1303,48.601,-5.5293
Pm2CdGaO6,12.9283,13.9265,0.9982
AcSm2Pt,44.9018,31.2828,-13.619
Pt2RhSe,69.3044,46.2569,-23.0475
RbMoP3,17.857,12.0015,-5.8555
AcPrSiPt,40.3582,33.9305,-6.4277
LiTbDyPd,17.6505,20.3183,2.6677
ReAg2Te,32.8033,33.4267,0.6234
LaW3,32.3047,36.4641,4.1594
BIrC,41.8045,38.3081,-3.4964
Zn2TeP2,13.137,13.5302,0.3932
Lu2ZrI,46.867,44.4262,-2.4408
ZnInTe2,28.0042,27.3955,-0.6087
TlGaAgSe,31.5247,29.0115,-2.5133
LiBe2Sb,13.3829,8.4851,-4.8978
PtPb2Se,56.2637,49.3595,-6.9042
Pm2GdAu,31.1934,33.9168,2.7234
Tm6SbC2,38.5635,34.8092,-3.7543
ZnIn2Te,22.3488,22.7133,0.3645
Lu2TcAg,47.6102,43.704,-3.9063
Ca3HgRu2,7.9981,10.1409,2.1428
Ba2CuReO6,3.8039,5.35,1.5461
TlAg2Mo,32.7511,30.0188,-2.7323
Ge2BiPbO6,5.8965,7.5508,1.6543
CdGe2PdO6,4.8524,5.5813,0.7289
PaCu2RuO6,11.2697,12.0001,0.7304
AgGe2PdO6,6.3698,5.8158,-0.5539
Ba2UCuO6,7.7635,8.5356,0.7721
BeSn3Se,25.6078,21.4014,-4.2064
Ba2PaFeO6,8.7521,8.556,-0.1961
RbAlSn,8.9448,9.6329,0.6881
La(H3Au)2,12.6144,12.4845,-0.1299
YZr3Os,72.9305,61.9153,-11.0152
SmAuN,17.1715,20.4762,3.3047
GaCu(AuO3)2,13.0441,13.5495,0.5054
Sr3As5S12,27.4793,16.6211,-10.8582
CsLi2P,12.0127,9.9637,-2.0489
YZr2Os,64.1428,57.4087,-6.7341
BeCrP,22.1128,20.3582,-1.7546
SmBe2GaAu4,27.5547,29.5168,1.9621
AcP2PtRh5,44.667,34.0382,-10.6288
Sm2AuN,23.5551,27.0249,3.4698
Sm2CuPtO6,14.1178,12.5193,-1.5984
CuTc(PbO3)2,16.1144,16.4407,0.3263
CuBi2RuO6,9.3925,11.6324,2.2399
CuSn(AuO3)2,26.2788,23.2079,-3.0709
LiSm2Hf,48.9811,40.598,-8.3831
Cs2Na2Cu,19.7679,18.0592,-1.7087
RbAlSn,0.0,9.6329,9.6329
Ac2TbSb4Pt3,59.4801,47.9222,-11.5579
Tb2PmEr9,28.5434,30.0706,1.5272
SiNiSe,23.553,19.9659,-3.5871
Pm2TlGaO6,16.0635,16.6075,0.544
RbAlSn,6.3351,9.6329,3.2979
RbTeSe2,34.9374,30.5367,-4.4007
Y2ZrOs,43.9711,41.3155,-2.6556
Ac2La2Pt3,70.5271,50.1072,-20.4199
Ca(HfP)2,62.4591,44.9025,-17.5566
YZr2Os,64.0252,57.4087,-6.6165
Rb2TeSe2,24.6916,21.0893,-3.6023
Tm4BiC,33.9646,35.2027,1.2381
Sm2ThSc,30.3448,32.778,2.4332
Rb(MnP)2,46.5479,34.7577,-11.7902
InNiBiP2,22.2531,21.9034,-0.3497
NaMnIn2Sn,37.9691,35.9567,-2.0124
NpIn(FeO3)2,16.849,15.8824,-0.9666
HfIn(FeO3)2,24.0748,18.6801,-5.3946
HfFe2PbO6,24.7869,19.2402,-5.5466
Na(LiS)2,23.3121,16.9855,-6.3266
Fe2BiSbO6,21.6236,19.312,-2.3117
TaBe2Cd,19.9292,19.3335,-0.5957
CdFe2TcO6,16.8245,13.9456,-2.8789
ZrFe2SnO6,35.7849,28.1423,-7.6426
Na(LiS)2,23.2896,16.9855,-6.3041
PmFe2TeO6,6.0868,5.4643,-0.6225
ZnIn2Re,33.464,27.0407,-6.4233
FeGe(BiO3)2,8.0742,9.9158,1.8416
AcFe2WO6,17.3436,16.335,-1.0086
FeCo2WO6,12.6109,11.9002,-0.7107
AcFe2TcO6,20.9488,18.5247,-2.4241
Ac2AlTlPt,49.0728,46.6349,-2.438
AcTlSnPt,55.922,51.4364,-4.4856
Tl2FeW,33.1544,34.7106,1.5562
Ac8Ru3PtCl4,43.6252,40.2717,-3.3534
SrZnBr2,9.1156,10.3481,1.2325
NaEuAu2,36.3055,36.1645,-0.1411
Ac6SnGe2Te3,44.8893,45.5786,0.6894
TbTh2(TeAs)2,36.661,37.6565,0.9955
Ce(Ga2Tc)4,35.3708,31.3056,-4.0652
LiNd2Lu,20.9697,23.6281,2.6584
Be2TeW,26.2177,21.6502,-4.5675
FeBi2PdO6,15.1178,15.5489,0.4311
Rb2NbPd,38.3962,33.0104,-5.3858
Mg(H3Rh)2,4.0911,2.6974,-1.3937
ZnSb2W,29.8381,28.0381,-1.8
CeY3N4,48.349,42.1188,-6.2301
BeTeW,31.3562,30.7378,-0.6184
RbSm2,17.6091,19.3113,1.7022
InSnRu2,18.1841,21.3177,3.1336
La4SiPtBr2,41.2886,28.7799,-12.5087
SrSn2P,12.6079,13.8334,1.2256
NaLiGe2,10.7857,11.1485,0.3628
La2SiTePt6,69.1995,48.7714,-20.4281
LiWBr2,25.1118,24.8068,-0.305
Si4PRu2,20.105,14.0263,-6.0787
AcBeGe2Pt,33.8962,29.9538,-3.9424
Ac2Ge3Pt4Pb,55.9153,45.8306,-10.0846
PaGa2AgO6,16.5929,15.4137,-1.1792
NaGe3Br,13.7411,13.301,-0.4401
LiTm2Ti,16.8424,19.6074,2.7651
CdSn2Ru,19.5203,21.7304,2.2101
Ac2GaHgO6,19.03,19.6558,0.6258
La2NdSi3Pt4,52.0363,36.2058,-15.8306
Sr2GaPbO6,8.7799,10.0064,1.2265
Zr2SbP,60.8378,51.0689,-9.769
SiTcNi,37.772,32.7599,-5.0121
Sr2GaWO6,17.5216,15.9868,-1.5348
Sr2GaPtO6,12.0734,10.8908,-1.1825
GaTe(PbO3)2,16.9966,17.0894,0.0928
SrIrO3,0.0,0.0,0.0
HfAsRh,50.1948,37.4943,-12.7005
PmZnHg3,4.4074,6.6535,2.2461
SnAsIBr2,15.5217,15.7752,0.2535
SiP3Pb,18.9869,18.382,-0.6049
SmPdAu,24.0403,28.0944,4.0541
LaCrRe3,38.0506,37.4733,-0.5773
Ac2PuHfO6,22.5395,22.4909,-0.0485
Sr2TlGeO6,8.8734,9.2917,0.4183
YTeBr,21.7149,23.6788,1.9639
LiBeAg,12.0685,9.6573,-2.4111
YMn,4.3049,6.5569,2.252
Ta2SbP,32.634,31.6215,-1.0125
TlCuW2,27.5746,33.2939,5.7194
PrSm2Y,15.5759,17.4971,1.9212
K2SrO3,0.9067,2.9862,2.0795
Sr2GaSi2,30.3721,20.8584,-9.5138
La2SiPt,51.5482,35.6763,-15.8719
Cr3ReGe,27.3828,21.9053,-5.4774
ZrCuGe3,26.3607,24.0972,-2.2635
H6IN2,-0.0,-0.0,0.0
Tc2IN,55.262,46.5447,-8.7172
NbZnSe2N,56.9396,46.2065,-10.7332
CsIn2Rh,28.7645,26.0055,-2.759
GeAsPt2,49.517,37.4455,-12.0716
In2SiAu,25.6397,24.8984,-0.7414
Zr3BeCu,64.5309,52.3833,-12.1475
GeAs3Pt,26.8286,21.6482,-5.1804
Zr(CuSi)2,24.1017,20.3245,-3.7772
AcCu(SiPt)2,46.5432,35.8977,-10.6455
Sr(PtO2)6,29.5385,20.6392,-8.8993
Sr5(ReN3)2,42.816,37.8354,-4.9806
Sr(InPd2)6,17.7954,18.9714,1.176
Hf2Ru2Pt,71.8691,53.4822,-18.3869
Sr3GaAs3,0.0,0.0,0.0
Sr(LiSn2)6,13.7652,14.5624,0.7972
EuHgAs,12.9187,13.687,0.7683
Ac2La(SiPt4)3,71.6352,51.7356,-19.8996
ZnCdBi2,34.1905,35.1929,1.0024
ZnSb2P,25.6252,21.5973,-4.0279
Ce2Ga3Cu4Si,13.6325,12.3785,-1.254
Y12Er2Tm5,20.0552,21.3658,1.3107
Zr2BeCu,54.9826,45.4117,-9.5709
Si2OsAu,30.0476,28.3543,-1.6932
Sm2Ge4Pd3Au,18.0206,19.778,1.7574
Sc2TlW,19.7013,23.4545,3.7532
NaAc2Pm,44.7535,45.4164,0.663
ErLuTl,37.7959,40.2631,2.4672
In2CuTcGe,30.7968,27.8341,-2.9626
ErTh2Sn9,28.59,29.8359,1.246
Na2Ge2Te,22.0406,20.5186,-1.5219
SrEr4Tl5,38.1667,39.9671,1.8005
ZrNbS3,81.9612,63.0362,-18.925
LiBe2W,15.9465,15.2024,-0.7441
Zr(BeCu)2,24.3115,19.7884,-4.5232
Ac2PmSn3Ir4,38.3907,40.8327,2.442
YMn,49.0781,6.5569,-42.5211
YMn3,78.3648,60.9076,-17.4572
La2Si3IrPt12,69.8958,48.9943,-20.9015
NaLa2(SiPt4)3,68.7928,47.2128,-21.58
YMn3,78.2486,60.9076,-17.341
KTlSn,25.0975,27.5404,2.4429
Sc2InFe,29.4815,23.8264,-5.6551
Tl3PbAu8,48.6204,49.6115,0.9911
BaLiSn2,8.8811,10.1499,1.2687
La2Th(SiPt4)3,70.9602,50.1697,-20.7905
RbNd2PtO5,7.5026,7.3692,-0.1334
YZr2Be,56.2444,46.1376,-10.1068
La2CoCl,22.4732,17.1444,-5.3287
Y(ZrBe)2,39.1446,33.1802,-5.9644
K2TcPt,48.6588,40.5583,-8.1005
InFeSe2,32.1901,25.6172,-6.5728
LaHfTaO6,30.4961,26.1079,-4.3882
YMn2,71.1582,56.7282,-14.4301
FePPt,52.4982,40.3872,-12.1109
ZnGeMo,5.5881,10.0519,4.4639
Cs2CaPaO4,24.1208,24.7102,0.5894
SmPd7Au12,36.1584,37.4683,1.3099
KAl2Zn,6.5954,7.5431,0.9477
Os3WI,91.5471,76.6519,-14.8952
Hf2TlCu,86.3683,62.7401,-23.6281
Sm3PdAu4,34.4653,36.6743,2.209
Sn3MoI,34.3305,27.8034,-6.5271
AcWBrO4,10.3286,11.9987,1.67
ReSi2Au,29.9616,28.5428,-1.4188
ReSiAu2,37.8838,38.4098,0.5261
Sr2AlIn3Ga4,12.774,13.1534,0.3794
Sm2Pd8Au3,25.3206,26.865,1.5444
Nd2Si2Ge,0.1182,2.841,2.7228
La2TaSi4Pt3,45.8135,32.1937,-13.6198
SnMoRu,38.5179,30.7666,-7.7514
Sr2AgPd2Au5,28.8043,30.0427,1.2384
Pu2MnPt,83.2309,71.2681,-11.9628
KUCd2O6,4.4972,6.9217,2.4245
Cs2HfCr,52.0143,40.2259,-11.7885
YMn6,87.8318,67.4462,-20.3856
La2Si3NiPt12,67.7446,46.7941,-20.9506
Pu6SiGe,56.7852,57.5403,0.7551
YMn,49.6192,6.5569,-43.0622
Li2Ta2RhSe6,36.7686,30.4612,-6.3074
Hg(SbPb)2,39.018,35.1257,-3.8922
NiAg2,23.1775,19.3003,-3.8772
CaPrSc,7.493,5.3344,-2.1586
CaPm3Se4,42.6296,36.3044,-6.3252
CoAgSb,29.3494,23.5755,-5.7739
YMn,49.2108,6.5569,-42.6538
Mg2AlReO6,10.7267,10.1829,-0.5438
SnMo3W,36.1768,31.8814,-4.2954
Os2WI,93.626,78.2962,-15.3298
Ba(Na2Si)2,18.2246,13.808,-4.4166
SiNiW2,26.3482,27.2358,0.8875
RbTcNi,28.9669,25.5303,-3.4367
CaPuPbAu,43.7603,45.9131,2.1528
KTc(PbO3)2,20.2966,19.4774,-0.8193
Zr(CoNi)2,47.3651,36.5656,-10.7995
CdMoW,26.0438,29.0608,3.017
U2Al9Cu,14.5516,16.0193,1.4678
Ho5Tc,39.0325,38.9448,-0.0876
LaZn(SiPt)2,44.2706,30.6201,-13.6505
Al2CuTc,29.194,24.9783,-4.2158
SmPd7Au3,26.4051,27.8387,1.4336
Al2CuTc,29.0666,24.9783,-4.0883
AlCuTc3,60.565,49.6289,-10.9361
Pa2Co4Ge3Pt,27.114,26.918,-0.196
Sm(Pd2Au)2,26.7677,29.0624,2.2948
ZnTeW3,35.5241,37.3663,1.8422
HfTcW2,78.3698,67.5123,-10.8574
HfTc2W,91.5998,75.4439,-16.1559
Sm(PdAu2)4,36.2255,38.028,1.8025
Tc2AsPb,62.3292,56.1516,-6.1776
SmSnPdAu,29.9131,29.8642,-0.0489
TcNiRh,41.3306,34.9759,-6.3547
ZrCu2Ag,35.8681,30.6867,-5.1815
NiRu2Pt,32.0447,28.6167,-3.4279
SmBiPdAu,35.5441,38.3097,2.7656
Ce2MnZn,39.2576,34.957,-4.3006
BaRe2Sn,32.3779,29.7876,-2.5904
CsBeRhN2,34.7243,27.4753,-7.2489
RbNb2Ag,75.938,61.3547,-14.5833
LiGdSn,1.5452,6.3461,4.8009
Mg2MnAsO6,29.4113,26.4854,-2.9259
Gd2Al2I,10.5338,12.7142,2.1804
Sm2Ga4PdAu3,27.8617,27.1553,-0.7064
Mg2MnNbO6,41.2075,36.9991,-4.2083
PrGdO,13.7918,12.2384,-1.5534
Bi2AsPt2,54.6903,45.6453,-9.0449
TlReNi4,32.4934,26.3963,-6.0971
Rb(AlRh)2,20.9773,15.7248,-5.2525
Cu3AsOs,15.6472,16.8975,1.2503
Yb3Pd2Ru,25.6202,27.8688,2.2485
Ca2YMn,36.0998,27.5884,-8.5113
CuNiBr,13.0601,13.1785,0.1183
NaLi2YP2,19.6512,14.2113,-5.4398
TaIn2Sb,31.0577,30.2582,-0.7995
Tl3AgTe3,41.1932,39.7844,-1.4088
TaIn2Sb,30.7463,30.2582,-0.4881
Tb3Tl3Ag,33.681,35.5612,1.8802
TaIn2Sb,30.6275,30.2582,-0.3693
MoOsO2,22.3957,22.8163,0.4206
PrSmZnAu,19.7157,20.8156,1.0999
Pm2PuBi3,46.8487,49.1907,2.342
TaInSb2,36.8129,33.0118,-3.8011
AcMgZnPd3,17.0076,19.2404,2.2328
PrSmGeAu,19.9235,21.5021,1.5786
Tl2IrAu,48.6034,50.1741,1.5707
PrSmGeAu,19.845,21.5021,1.6571
PrSmPtAu,39.7321,33.3525,-6.3796
Tb3AgPb3,33.5905,35.6671,2.0765
Tl(NiRh)2,27.0505,24.3503,-2.7002
CuNiBr,12.789,13.1785,0.3895
SrMo2Pb,25.1559,27.3657,2.2099
CaY2Mn,38.3023,30.8687,-7.4336
NdSbPt4,70.6079,51.5297,-19.0782
PrSm2Bi,24.5922,27.0181,2.426
As2PbWSe,46.4826,43.4294,-3.0532
Tm3AgSn3,21.3223,23.642,2.3197
Tm2ThZr,56.6186,55.2906,-1.3281
CuNiBr4,11.7221,11.6998,-0.0223
CaY2Mn,38.3296,30.8687,-7.4609
Na2PaCoO6,11.1825,12.4324,1.25
Ba(RuRh)2,44.1439,33.2221,-10.9218
TlNi4Ru,15.5783,17.8182,2.2399
Ce2Nd2CuSi4,18.5279,16.5625,-1.9654
Ac2SnPt,53.473,49.3682,-4.1048
CaYMn,46.2943,35.2322,-11.0621
Tl(NiRu)2,13.5697,18.2862,4.7165
Na2PuInO6,8.6734,10.4405,1.7671
NdTl(TeO3)2,10.4818,10.3163,-0.1656
ZrCuMo2,38.1992,33.1893,-5.0099
Gd2RuRh,41.4847,36.4189,-5.0657
LiPr2(SmAu2)2,26.3337,26.7058,0.3721
AcTbNd2Ho,29.2635,32.3071,3.0436
ZnP2CS,28.9794,23.6469,-5.3325
Ca2YMn2,49.0449,37.2648,-11.7801
CaYMn3,68.5251,50.9614,-17.5637
CsTi2HgO6,0.0,0.0,0.0
BaY2Be,35.3726,27.8399,-7.5328
CaAsRu,13.6298,13.5494,-0.0804
Cs2NdPtO4,14.0593,14.0816,0.0223
K2MnPb,44.4795,38.0371,-6.4424
Cs(CuBi)2,26.5325,28.847,2.3145
Tl6Hg2PdAu,36.9334,37.8677,0.9343
NaAcGePt,46.5719,40.1477,-6.4242
PrSmGaAu,20.4774,21.9781,1.5007
BaPb3Au,40.6451,41.7376,1.0925
RbAlV3,80.6833,62.598,-18.0853
SmGa2CuAu5,32.2086,32.4823,0.2737
ZnSn4Ir,20.5017,19.7279,-0.7739
Ba2CaNpS6,33.882,26.9076,-6.9744
Ca2PCS,36.8057,26.7533,-10.0525
CaIn5Ir,25.0604,22.512,-2.5484
TiGeAu,28.6046,23.1659,-5.4387
ZnCd(GeS3)2,34.2325,25.4167,-8.8158
CaPmNdTh,30.1686,33.06,2.8914
Ac2GaPt7,75.6954,56.8035,-18.8919
KZrMo4,29.4366,28.5511,-0.8855
Ti(GeAu)2,28.6654,25.8569,-2.8085
Nd3Al3Cd,10.5704,13.8058,3.2354
Np2OsPd,49.9721,53.3346,3.3625
Pm2SmCuTe5,26.2865,27.4453,1.1587
LiBeAu,17.0938,17.7268,0.633
AgPt2C,62.4879,44.3196,-18.1683
Ce2YCuSe5,32.7723,27.683,-5.0892
MoP3Ir,26.9772,20.1556,-6.8216
Tm2MnCoO6,25.8129,25.5183,-0.2946
Zr2ScMnS6,66.6548,51.9065,-14.7483
ZrNi2W,41.0539,36.2081,-4.8458
RbAlGa2,5.4228,6.8689,1.4461
LiBeAu2,24.4338,24.7298,0.296
Zn2FeW,18.0464,16.9465,-1.0999
AcTm2AlPt4,59.7323,47.467,-12.2653
Ba2TlCu,12.5456,14.2799,1.7342
Sr3PuAs3,22.3542,17.9668,-4.3874
Zn2CoMo,16.1888,13.0675,-3.1213
ZnFe4W,10.2357,11.1571,0.9215
HoZrMnCu,58.2159,49.8241,-8.3918
CaSiRu,21.9799,16.4589,-5.521
Ca2YMn,36.1533,27.5884,-8.5649
Na3Tm2BiSe6,38.5441,33.6175,-4.9266
Ge2AsOs,18.1155,20.574,2.4585
Ac2TmMgO6,6.3424,10.5598,4.2174
Cu(ReRh)2,28.8229,28.3024,-0.5205
CaSi3Ru,19.3278,12.6245,-6.7034
Ho3BI3,7.5523,13.1676,5.6153
Li2SiAgTe4,25.964,23.8391,-2.1248
La5RuAu2N,44.9997,35.6652,-9.3345
Er2MgVO6,16.8342,16.4379,-0.3963
CaSi2Ru3,23.329,16.7621,-6.5669
GaBi3Pb,45.7683,46.2724,0.5041
Cs2PrBr6,11.5044,12.5474,1.043
CsPrBi,20.4802,22.5957,2.1155
RbNb2Si,70.5964,56.7502,-13.8463
YMn,57.09,6.5569,-50.5331
ScGeSbRh2,42.0343,29.3094,-12.7249
ZrPtC2,69.8486,52.1193,-17.7293
MoAuCl4,20.0668,15.226,-4.8408
Rb3InP,11.4832,8.7068,-2.7764
Rb2InP2,13.6504,9.983,-3.6674
CaIrRu2,21.4179,21.2804,-0.1375
Ca2IrRu,25.139,21.0363,-4.1027
Ac3(NiPt2)2,55.78,47.09,-8.69
KTlAs2,20.9852,21.6719,0.6867