Formula,E_hull_DFT (eV/atom),E_hull_ML (eV/atom),Delta (ML - DFT)
YCo2Ni,50.994,44.4428,-6.5512
LiY2Co,28.0039,24.3697,-3.6342
Tb4BSeS2,32.0752,28.3091,-3.7662
TaTcSe2Br,48.1658,41.5225,-6.6433
Na(AlSi)2,28.2396,22.9107,-5.3289
Ac2Zn4SiAu3,31.3954,32.0835,0.6882
BaPr3Pt,14.7271,9.9203,-4.8068
NaGaSeO4,20.6866,17.7601,-2.9265
Pr5YHo4,12.1193,12.7794,0.6601
Zr(MoO4)2,22.816,18.9666,-3.8494
AcIn(SiAu3)2,39.667,39.5583,-0.1087
PuSb2As,42.6938,38.6815,-4.0123
MoPd,0.0,3.9825,3.9825
NaP2PtS,36.5604,29.8089,-6.7515
YMn2Co,67.0241,54.2984,-12.7257
K2Zn2Bi,16.8854,16.956,0.0706
Na2ErGaO4,17.5824,16.5607,-1.0217
Ac3(Si2Au)2,37.86,36.079,-1.781
BaReTe2,37.1237,34.6052,-2.5184
MnAlPb2,52.3675,48.8801,-3.4874
Pr3CoI3,3.1049,5.377,2.2721
TePb,43.2996,44.3322,1.0326
CrCu2Pb,21.5531,20.308,-1.2451
Tb6Ni2Ir,17.765,22.0679,4.3029
Tb6Ni2Os,17.6211,21.8874,4.2663
Tb6Ni2Pt,23.042,23.4713,0.4293
CrCuPb2,32.0193,31.778,-0.2413
Ag(SnAs)2,15.031,14.9551,-0.0759
Dy3CoSn3,15.5611,19.7045,4.1434
Nd3CoNi3,18.7103,18.9485,0.2382
Ca2NdDy,15.572,18.4702,2.8982
Co(NiPt)3,46.6241,32.1397,-14.4844
Dy6TcNi2,24.0319,26.132,2.1001
CuSi2Pb,23.8289,20.9266,-2.9023
VZn,68.1975,55.0869,-13.1105
LiAgP2,14.9853,10.8509,-4.1344
Pm(ZnSb)2,21.9978,20.2321,-1.7657
AcSi2Au3,34.2312,33.9213,-0.3099
Er6Ni2Te,20.0593,22.3305,2.2712
Ho6Ni2Te,19.3562,21.6371,2.2809
BeTeAs3,17.9486,15.948,-2.0006
Th2Al4Ni3Ir,19.9462,22.2543,2.3081
Cd4Hg3,10.8543,11.3028,0.4485
Cr3Ir3Os,21.0744,23.1309,2.0566
PmCd2Sb,26.5065,25.5093,-0.9972
Er(H3Ir)4,11.9537,12.8632,0.9095
InSbAs2,21.4924,21.152,-0.3403
Y2CoNi2,77.387,59.0098,-18.3771
YCoNi2,63.308,51.474,-11.834
SrMo,5.9711,8.2375,2.2664
ScCoSi2,26.7583,22.9255,-3.8327
LiAgP2,15.1463,10.8509,-4.2954
Ca2PmPd,1.1463,6.0387,4.8925
Ca3Sm3ScTe8,28.2625,26.856,-1.4065
ThAl3Ni2,8.3675,12.3573,3.9898
Y2CoNi,74.1937,63.1953,-10.9985
KCdCl2,8.9146,9.4197,0.505
Ba2NaTlO,14.2484,14.2668,0.0185
Tb4PrNd,21.3178,23.4572,2.1395
Pr2Y6Ho3Pu,19.7662,20.9412,1.175
CeMn2,74.7974,63.4886,-11.3088
Y2CoNi,68.3119,63.1953,-5.1166
Cs(YbH4)3,8.0631,8.8595,0.7964
YCoNi2,63.3477,51.474,-11.8737
CsGa2SnI8,19.883,20.1818,0.2988
YCoNi,65.9764,56.6429,-9.3335
CdHg3Br,5.9058,6.3621,0.4563
CaAcLuAl,26.6458,29.2241,2.5783
CaTaCd,21.6064,23.7278,2.1214
YCo2Ni5,44.0445,35.2574,-8.7871
LaPrYHo3,20.0114,19.7227,-0.2887
GdThRu,36.9387,40.7116,3.773
Na3Tl(NO3)4,6.1594,6.3461,0.1867
AcSiAu,41.7572,41.9815,0.2243
Sr3CrAs3,4.1848,2.059,-2.1258
Ce3Mn,43.7351,41.037,-2.6981
LiAsP2,18.5109,13.6826,-4.8283
Sr3Mn,35.395,31.1723,-4.2226
SrMn2,71.3999,58.9873,-12.4126
GaSnPt2,46.2302,33.7392,-12.4909
SrMn3,71.4241,58.7993,-12.6249
CoPtPb,47.3011,37.7005,-9.6006
GdY3Cu,25.9494,24.1237,-1.8256
CoBiPt,44.9419,38.4501,-6.4918
SrLa5,45.392,32.1115,-13.2805
Pr6Y2Ho3In,10.5371,10.5772,0.0401
Tl2CuSe,39.301,37.5384,-1.7627
SrCr,0.0,1.2346,1.2346
Dy3Np5S8,53.8239,47.507,-6.3169
Y2Co3Ni,51.4638,44.9261,-6.5378
Ga2PdF,11.4844,11.0625,-0.4219
LaIr2,31.8146,30.9572,-0.8574
SrLaMn,55.9194,44.0069,-11.9125
AcCe2(SiAu)2,33.455,33.608,0.1529
SmSiPd2,12.2457,13.8322,1.5866
SrLaMn,55.3434,44.0069,-11.3365
NaHfTl2O6,26.1056,23.2303,-2.8753
CsMoO2F3,10.3058,11.2573,0.9515
Tb2Nd2Tm2Mg,23.8535,26.2121,2.3587
NaVBr2F,35.9312,28.7687,-7.1625
SrCr5,11.3991,10.0736,-1.3255
GaBi2Pd,36.694,37.7603,1.0663
SrCr,11.1828,1.2346,-9.9482
BaSnSb2,27.3417,23.6725,-3.6692
KTaBr2,14.0878,15.9454,1.8576
LaCe3Mn,45.3076,39.0541,-6.2536
CeCr3,13.5437,13.8363,0.2926
Ac3Si2Pd9Au,28.1936,28.5551,0.3615
LaCe3,31.6707,29.2193,-2.4514
Y(CoNi2)2,49.2808,39.1766,-10.1042
SrCa2Tl,20.2454,19.8589,-0.3865
KP3Rh,14.7302,11.7411,-2.989
YSbAs2,19.1977,18.5453,-0.6524
LiP2Au,18.836,16.6708,-2.1652
CaTi2VFe,41.8574,32.9257,-8.9316
Y2Co2Mo,34.2802,28.8247,-5.4555
BaGdY,47.5083,41.9369,-5.5714
NaPaTl2O4,22.6241,24.3684,1.7443
BeFeP,5.6292,5.9405,0.3113
Mn2BeFe,52.3491,41.8735,-10.4756
Mn(BeP)2,22.2283,18.7069,-3.5214
K2IrOs,28.489,29.2861,0.7971
TlCo,0.0,7.1818,7.1818
Y2Co5Ni12,41.8054,32.6794,-9.126
Mn2BeP,51.1344,42.6755,-8.4588
Sb2RhCl,35.8334,27.683,-8.1503
PrYHoEr2,15.6105,18.2416,2.631
BeFeP,5.1527,5.9405,0.7878
TlCo2,17.01,21.6559,4.6458
NaCa2W,16.5427,17.874,1.3313
Tl2CuCl4,17.5716,17.9879,0.4163
Mn2BeFe,58.8888,41.8735,-17.0153
Ac2Ga3Cu4Pt,28.5972,24.9723,-3.6248
CuTcPt2,69.7341,52.3983,-17.3358
Ac2SiGe4Au3,31.7766,32.4543,0.6777
ScReRh2,57.5569,45.0139,-12.5429
MnBe2Fe,36.9169,29.371,-7.5458
MnBeP,35.1288,29.1238,-6.005
CuReTc,46.6814,46.5705,-0.1108
KP2Rh,16.6501,13.9816,-2.6685
Np(Ni3Au)2,22.6928,24.6785,1.9857
PrYHo2Tm,15.6816,19.4039,3.7223
ZrCuSe,51.095,42.8425,-8.2524
EuFeSi,16.4208,15.7067,-0.7141
Ce(CdNi3)2,18.6225,16.3051,-2.3174
Ce8Os3PtBr4,28.4495,27.8388,-0.6106
CsBi2Br,36.5178,37.3869,0.8691
CrFe2Ni7,27.6051,22.027,-5.5781
ReMoBr,27.5197,26.3236,-1.1961
ReMoBr,27.6356,26.3236,-1.312
K2TiF,9.6516,9.4823,-0.1692
LiP2Br,13.6937,13.5237,-0.17
CrFe2Ni,37.1631,26.7066,-10.4565
LiCaP2,21.3292,15.7263,-5.6029
CrFeNi,34.6364,27.1156,-7.5208
CrFeNi2,38.2341,30.6593,-7.5749
CrFeNi2,38.0999,30.6593,-7.4406
V2CuHgO6,19.7461,14.5776,-5.1685
ZrNp(US2)2,65.2377,55.8174,-9.4203
BaPb,25.7752,28.0408,2.2657
RbCaTa,11.7267,14.2185,2.4918
PrEuIn2,15.3256,17.6378,2.3122
BeTeAs2,19.7419,18.0298,-1.7121
Al2BPb,11.2292,14.9701,3.7409
Pr7Pb,2.2717,3.79,1.5184
CaMoF2,4.4145,5.3882,0.9738
SbAs2Se,43.3197,37.9691,-5.3505
Pu(Ni3Au)2,22.9365,24.6893,1.7528
PrDy2,16.6803,20.1123,3.432
AcCeSn3,24.9312,27.7318,2.8006
CrTc2Ni,53.0476,48.6413,-4.4063
SrGeSe2,25.3092,22.5774,-2.7318
Ac2Sb4PtAu3,53.3574,47.0926,-6.2648
BeTe2As,27.7314,25.196,-2.5354
Tl(SnSb)3,32.012,28.2279,-3.7842
BaY2Er,39.1324,35.9039,-3.2285
PrDy2(AgPb)2,30.7923,30.9917,0.1994
RbSnP2S,25.0357,21.8625,-3.1732
PuCd5Cu3,20.9483,21.8329,0.8846
MgSb2As,27.9969,21.3136,-6.6833
GdYO,38.3196,35.4496,-2.87
Ac2Al4IrPt3,44.2746,36.7056,-7.5689
NaEr2GaO5,8.7875,9.2027,0.4151
PuPb5,55.7944,57.1186,1.3241
V(OsRu)2,39.424,39.6617,0.2377
Na4Er3SnSe8,35.6191,29.8216,-5.7975
RbSnP2S,23.7883,21.8625,-1.9258
Zr2CN,66.5126,56.1919,-10.3208
Rb2TmBiTe4,31.2131,30.4182,-0.7949
Ac8Ni3I3Cl,39.8507,41.152,1.3014
ReAgP,52.3899,43.3297,-9.0602
RbTaBe,12.321,13.0564,0.7354
Ac2Tb4Ho7,33.5769,35.4633,1.8864
RbTaBe,12.4254,13.0564,0.631
Sr2CuAu,20.0456,21.1452,1.0996
Cs3CrTe3,17.4297,19.103,1.6733
Mn2SbPt,76.4957,59.4961,-16.9996
Pr2EuIn,9.3882,11.2765,1.8882
Cs3Hg3Pt,18.0718,15.5484,-2.5233
RbTaBe,12.1516,13.0564,0.9048
BeTe2As,27.5226,25.196,-2.3266
AcLaRuPt,58.63,45.8003,-12.8297
PuPb3,57.483,59.6948,2.2118
SnMo3As,30.2201,25.739,-4.4811
Re2Si2Au,23.7923,25.3255,1.5332
ReAgP2Rh,42.3265,32.9601,-9.3664
DyVGa2,43.0201,37.8778,-5.1423
Nd8Ru3PtBr4,26.7833,24.0227,-2.7607
AcEuGePt,49.2447,42.5443,-6.7004
AcGePt3,67.5632,51.2724,-16.2909
GdYCu2,26.8553,24.6379,-2.2173
Li2Tl2BiPb2,37.4294,38.3787,0.9494
Ca2ZrIrPt,54.7078,41.1359,-13.5719
Pm2Pb,33.7147,36.8848,3.1701
Sc4TeAu,19.6201,19.7529,0.1328
Li2Ca(ErGe)2,11.5145,13.6543,2.1398
Cu2Ni6Ge,3.9399,5.5608,1.6209
Tb2Pr(MgIn)2,14.0287,15.7224,1.6937
PuTc3,76.6046,71.0753,-5.5292
Zn3SbCl,14.5213,12.9586,-1.5627
Cr2TcNi,39.8683,36.9767,-2.8916
Nb(CuNi3)2,21.4037,20.3994,-1.0043
NdCrAs2Rh5,33.9922,25.4276,-8.5646
Cs2GeRhI6,23.7909,22.851,-0.9399
CrTc3Ni,68.5356,59.3672,-9.1684
UAl2Co,32.3031,29.4448,-2.8583
Mn2TlSb,74.0008,61.9919,-12.0089
Rb3TbF6,5.5571,5.1659,-0.3912
Ca2MnBW,30.8987,28.2893,-2.6094
Sr2TlZn2,16.4038,18.3,1.8962
Sr(AcZn)2,31.453,33.3999,1.9469
Ca2TbSm,15.4685,18.3669,2.8984
Sc4InGaAg2,14.1017,13.7508,-0.3509
Na2ZrTe,44.1273,38.0191,-6.1082
SrCa2Cd,7.5523,7.8369,0.2846
CaPm6Th,27.5431,29.6867,2.1436
ErInCoRh,25.655,24.7277,-0.9273
BaNa2(ZnSn)2,14.807,14.5473,-0.2597
Cs(TlPb)3,45.2001,46.3565,1.1564
YMn2Co,74.1162,54.2984,-19.8177
YCoMo2,32.138,30.6275,-1.5105
Ga5NiRh6,27.9659,21.6656,-6.3003
Zn2RuPb,17.9157,20.4601,2.5444
CdRuSe2,32.9953,29.0252,-3.97
Y2CoRu,36.3571,28.5213,-7.8358
Pr2ThTe3,29.1962,29.1796,-0.0167
Pm8RuRh3Br4,29.3987,25.1026,-4.2961
Nd3Cu3Ag,13.3539,15.3173,1.9634
PrNbAs,40.7719,36.658,-4.1139
Nb2SbC,97.959,78.6142,-19.3449
Mn2SbW,70.9787,61.7438,-9.2349
LiWSe2,28.1012,26.9493,-1.1519
NaLi2Re,14.998,15.5024,0.5044
Ac4OsPtI2,53.476,52.2059,-1.2701
PmPrY3Ho,10.0296,12.6451,2.6156
Tb3Ga3Cu,11.8844,14.6436,2.7592
Pu(Ni3Ge)2,18.0813,17.0327,-1.0486
TbSm2(YHo)2,23.1253,25.6517,2.5263
CdRu2Se,25.5282,25.0778,-0.4503
P3Pb5BrO12,12.3236,11.302,-1.0217
TaVSe2,77.0775,63.6534,-13.4241
Cd2RuSe,26.1083,24.8743,-1.234
La8Ir3I3Cl,40.1335,30.3976,-9.7359
AcPmRuPt,57.2406,47.5045,-9.7361
Np2Ni6Ge,22.5651,23.411,0.8458
NaLi3Re,14.8441,13.7432,-1.1009
Cr2ReAg,22.7461,22.383,-0.3631
BeNi2Ir,13.8593,17.4228,3.5635
Sb4Se4I3,40.1154,32.5648,-7.5506
Tm2CuSi,16.0354,17.6098,1.5745
Tb4AlSi2,25.24,25.1927,-0.0473
BeNiIr,16.5073,21.6245,5.1172
La8TeOs3Br4,38.2183,29.1272,-9.0911
PC2Br,31.6569,22.0253,-9.6315
Mn2AgSe,69.7833,56.6729,-13.1105
Ce8Os3I4Br,26.0442,27.044,0.9998
Hf3Ga3Cu,60.0404,44.5088,-15.5316
AcPaCdO5,8.8214,15.2092,6.3878
NdSmY2Ho5,19.8732,22.6746,2.8014
Sm2YHo5Tm,21.9857,24.7841,2.7984
Ac4Zn3Pt,45.8635,43.9059,-1.9576
AgSnPt2,52.9266,40.1978,-12.7287
ZnIn4Si,17.9015,17.7778,-0.1236
LiTc2Au,58.5192,53.6336,-4.8856
AcCd2GaPt2,47.9974,38.8977,-9.0997
Sm6Y2Ho3Pu,27.9397,29.593,1.6533
BaCaSe2,39.6058,33.2807,-6.325
LiTc3Au,67.3829,58.8319,-8.5509
Ta3SbOs,41.6706,41.9867,0.3161
La8Sb3Te4Br,45.9829,34.3595,-11.6233
Nb2FeNO,63.8729,51.1215,-12.7514
ZnIn2Si,16.425,16.4213,-0.0037
SrTlNi2,23.5613,22.7459,-0.8154
Zn2InSi2,14.2611,13.2709,-0.9901
LiCaTbHg,10.0201,11.2893,1.2692
Dy2Sc(CoSi)6,16.1047,15.2943,-0.8104
Ca2LaZn,16.0174,12.4119,-3.6056
La2TbNi6,18.2353,16.4583,-1.777
Zn2InSi,13.398,13.2784,-0.1196
BiP2AuS,29.2918,32.0432,2.7515
GaTeBr,17.1288,17.5475,0.4187
GaTeBr,10.5363,17.5475,7.0112
LaTa2Bi,45.6038,44.5647,-1.0391
K3TeBr,16.8403,15.709,-1.1314
Ac(LaPt2)2,73.9966,52.4195,-21.5772
Tm2Zn2Au,24.3147,26.5068,2.192
Tm(ZnPt)2,39.5954,29.8052,-9.7903
TaBi2Os,47.8343,51.021,3.1867
Ta3BiOs,42.2933,44.7866,2.4933
ErPAu,25.8789,28.9419,3.0629
La(SmNi3)2,15.0991,15.6974,0.5983
BeIn2Ir,21.0361,22.9983,1.9622
Sr2CuMo,24.8492,20.2581,-4.5911
Ta2NbNi6,27.966,26.9552,-1.0107
CsCaCu3,12.7219,11.5989,-1.1229
Ag2SnGe2,16.9947,16.5053,-0.4894
Sm(Y3Ho)2,18.4061,20.5678,2.1617
Li2Nd(SmGe)2,12.9598,15.6971,2.7373
Pu2SiPt2,57.4626,47.8678,-9.5949
AgIrRu2,31.8077,29.746,-2.0617
CsCaCu3,12.0859,11.5989,-0.487
Ag(IrRu)2,29.8394,27.4635,-2.376
Pa3CrIn3Se8,42.8927,38.0564,-4.8363
LiAl2In,9.4782,9.2796,-0.1987
Sm2Y3Ho2,21.2921,23.7195,2.4273
PPbN2O,26.3253,23.3991,-2.9262
AgIr2Ru,38.3821,35.8513,-2.5308
LiP2Ir,24.4996,16.5521,-7.9475
Hf2Be2As,55.4342,39.4867,-15.9474
Sm3(YHo)4,22.3042,23.8227,1.5185
Be2InIr,15.7828,18.6694,2.8866
TlP2AuS,34.5792,34.6974,0.1182
AcEuPtSe,56.4303,48.7626,-7.6677
Sr2CuPt,30.4114,24.2535,-6.1578
BaSr2S,20.9042,18.1668,-2.7374
Ca4GePb2,18.9303,20.3563,1.426
Y2CoW,40.5513,30.7621,-9.7892
Ac2Sm3Y6Ho,26.3234,27.9539,1.6306
Y3Ho(ErSb3)2,32.0209,28.3282,-3.6927
Be2InIr,15.9877,18.6694,2.6817
LiP2Ir,24.7797,16.5521,-8.2276
Sr2CuRe,27.481,24.9295,-2.5515
OsW3N,82.6089,70.051,-12.558
AcPtCl6,21.2024,18.1136,-3.0887
YCrAs2Rh5,40.9592,30.2792,-10.68
TaP2PbO,29.2108,26.1005,-3.1103
Rb3IrOs,20.1029,19.7553,-0.3476
Ba3ReSi,21.1613,16.909,-4.2523
Zr2Zn2Rh,46.0128,37.2308,-8.7819
Tc4Pd,50.077,45.1114,-4.9657
KIrRu,30.4328,26.7685,-3.6644
YCo2Os,36.5235,33.76,-2.7636
Pr3Cu3Ir,2.9222,5.3239,2.4017
YCo3Os,32.3442,29.0856,-3.2586
ScBi2Rh,34.608,34.3263,-0.2817
Ta3VSe,77.3491,64.4469,-12.9023
Sr2CuRu,13.6518,15.442,1.7903
LiCo2HgPb,17.4775,16.4658,-1.0117
Na(TaSi)2,18.3894,18.6375,0.2481
AsWCl2,10.6975,12.1596,1.4621
SrCd3,15.7907,15.4202,-0.3705
SrMgPt,34.9725,26.7214,-8.2511
Pu2Al7,11.8109,15.1729,3.362
Ca2Al7,0.0,1.9248,1.9248
TbSm2Er5Th,27.842,30.8256,2.9836
Tl2InBr2,25.8842,26.9069,1.0226
AcPtS6,61.3,46.7988,-14.5012
Sn2Pd,18.7458,18.4276,-0.3182
Ca2LaTc,39.1574,32.089,-7.0683
CdAgW,74.6549,58.7034,-15.9516
TbGdZr,51.4917,47.0547,-4.437
ZnBiTe2,36.6334,36.3371,-0.2963
RbLaHfBe2,41.3894,29.1866,-12.2028
Sr2TlCu,21.108,22.4922,1.3842
K2IrRu,26.0166,23.3975,-2.6191
Os(PtBr)2,46.8524,35.5056,-11.3467
Pu2CoSi4Pt3,46.9939,36.1949,-10.7991
Ca2TcPb,39.145,36.9699,-2.1751
Ac2PrNi6,20.9709,21.6814,0.7105
SrEuYMg,16.8523,16.4258,-0.4265
ScRh2S,42.2485,34.7359,-7.5125
KFe2Sb,20.4829,17.0215,-3.4614
NaScI2Br,17.1497,15.9437,-1.206
CaReSi2,23.4791,20.855,-2.6241
CaAc(AsPt2)2,55.2618,40.8365,-14.4253
Sr4Cd2P,16.1884,14.2183,-1.9701
Cd2AgW,60.9646,48.8863,-12.0783
Pu2SbI,52.391,51.2512,-1.1399
TlRu2Se,28.2234,28.9431,0.7197
Y4Os,22.6313,23.5175,0.8862
Cd2AgW,60.7369,48.8863,-11.8506
Cs3ThTe4,37.3828,37.2199,-0.1629
CaRe2Si,30.4678,30.161,-0.3068
Be2TlReSi,31.3521,29.4358,-1.9163
Y2MgGe2,9.262,7.4411,-1.8209
YOs2,33.8238,36.9387,3.1149
KOsCl2,15.8334,16.3672,0.5338
Ac(SmNi3)2,16.5557,19.231,2.6753
Ca2TcPt,48.1155,39.0036,-9.112
SrY2Mg,14.1831,12.9902,-1.1929
VGe3,33.8213,27.8584,-5.9629
Pr4Tl3Ag,20.2741,21.2579,0.9838
CaTb2Co,14.6807,16.1846,1.504
Sr(Ni3Sb)2,21.6485,17.7769,-3.8716
CaGdInPt,35.2508,29.8522,-5.3986
YCrCo4,21.5624,20.157,-1.4053
ThInGeRh3,33.3828,29.0281,-4.3547
NdGdInPt,40.1519,35.469,-4.6828
SrCuAu,22.5701,24.8099,2.2397
Ac3(Pt2Au)2,65.1335,55.9733,-9.1602
LiReP2,37.273,28.5485,-8.7244
TbGdInPt,40.5884,35.962,-4.6264
La(HoZn)2,20.8925,20.073,-0.8195
Rb3NbSb,39.6229,31.0318,-8.5911
Re3PdI,35.0029,36.0158,1.0129
CeTlRu2,26.9029,29.5835,2.6806
MgTaBr2,11.8845,13.778,1.8935
Al2VCd,35.0815,30.6354,-4.4461
Ce2Ni3P4Rh,17.6808,15.7686,-1.9122
In2MoBr,17.2775,18.1765,0.899
Y4Os3,28.1608,28.2852,0.1244
Ac3Pt7Rh2,75.708,56.9862,-18.7218
AlVCd,46.2192,39.3667,-6.8525
RbTaPd2,19.4132,21.0566,1.6434
YOs2,25.4384,36.9387,11.5003
PrThAu2,38.3249,40.6934,2.3685
Li2PbAu,22.0721,24.7723,2.7001
In3RuC,30.1479,26.8216,-3.3263
PRhPbO2,29.0936,24.1071,-4.9865
AlOsW2,94.3253,78.3364,-15.9889
Cs12Au5O2,33.8793,32.9119,-0.9674
P2PbWO,73.7308,60.1082,-13.6226
In2RuC2,34.4428,28.2351,-6.2077
EuIr4Pb,42.3727,45.3378,2.9651
CrTcAgMo2,34.7259,30.6145,-4.1114
Ca2BeIr,28.777,21.2458,-7.5312
CaBe2Ir,22.4003,18.7103,-3.69
Pr3Ga3Ir,5.4927,7.2509,1.7583
CaBe2Ir,22.8315,18.7103,-4.1212
SrCuIr2,31.6191,29.4806,-2.1385
CaBe4Ir,16.8929,14.224,-2.6689
SrLaCu,24.0595,19.5329,-4.5266
Zr2NbNi6,41.4421,35.1535,-6.2886
NiAsPbBr2,32.728,26.8971,-5.831
ZrNi2Pd,25.7744,24.6465,-1.1279
La(PmZn)2,19.4274,19.0899,-0.3375
TlTc2Ir,70.5683,65.2962,-5.272
Rb2PCI6,23.2588,19.7141,-3.5447
K2Tl2In15,22.246,22.6344,0.3884
BaSc4Te,11.8901,11.9984,0.1083
U2PbAu2,50.4276,53.8429,3.4154
Zn2MoRh2,25.4912,22.0537,-3.4375
Sr(La2Ir)2,46.8464,34.4755,-12.3708
Ho3Co3Ru,10.2209,14.9546,4.7337
NaSm2In,23.5147,24.6711,1.1564
Nd2Zn2Ir,19.6905,20.4971,0.8067
CaCoI,11.1704,12.0127,0.8424
CaPuGe2,16.489,19.8656,3.3766
ZrAl2V,57.9851,46.6588,-11.3264
Nb2BiSb,95.7985,81.4506,-14.3479
CsPaSbO5,16.1147,18.9565,2.8418
Cr(CdP)2,25.215,22.4003,-2.8147
Nb2BiSb,89.6811,81.4506,-8.2305
Be2AgGe,11.9234,11.0417,-0.8817
InPd2,13.0771,16.6204,3.5433
YOs2,5.7892,36.9387,31.1495
PtW7,45.0324,45.522,0.4895
K3(Tl2Sb)2,33.7988,31.4807,-2.318
NaCaTa3,30.1371,30.9497,0.8126
AsIrPt2,52.7598,45.4652,-7.2945
CsTaMn2,66.5585,57.5184,-9.0401
NaInSn2Pb,24.4911,25.0349,0.5439
Re3HgIr,36.1944,37.7975,1.6032
Cu2GePbSe4,33.26,29.1735,-4.0865
SrCuRh,23.0925,20.059,-3.0335
Ac4Te(AsPd4)3,26.5573,28.1706,1.6133
YCoOs3,47.8294,44.1519,-3.6775
ZrBrCl3,25.2458,20.9987,-4.2471
Ce3Ga3Hg,9.4588,12.8129,3.3541
AcThGePt,56.6653,52.5232,-4.142
BeReTe2,26.5643,28.1255,1.5611
Th2Te2MoBr4,30.8696,31.3371,0.4675
LiAsP,16.1579,13.4077,-2.7502
YCoOs,46.4229,43.939,-2.4839
Sm4Y2HoMg,20.888,22.058,1.17
CeZrRu,46.2457,41.9663,-4.2794
CeReTc2,62.8138,59.3493,-3.4644
AcEuZnPt,46.9277,41.7564,-5.1713
Pm3InGa3,12.1767,15.9376,3.7609
Sr3(PrV)2,41.515,34.8714,-6.6437
AcCdPt,43.2881,39.5123,-3.7758
CdPd2,13.8374,17.5164,3.679
NaCaTa,18.1132,20.3046,2.1914
Ce2ReTc,46.2352,46.241,0.0058
NdPd2,13.5737,18.2156,4.6419
Rb3Au2Br9,13.802,13.8849,0.0829
YCoRh,48.6357,39.4599,-9.1757
SrTa2Cu,32.7957,28.6387,-4.157
YCoRh,48.2905,39.4599,-8.8306
AcPu(AsPt)2,54.8698,46.9236,-7.9462
AlAsCl,22.6463,18.5897,-4.0566
YZnOF2,21.7509,18.4346,-3.3163
Ta2Pd,30.1813,35.3874,5.2061
Pm3Ga3Hg,9.6672,13.4037,3.7365
Te2Pd,29.5814,30.6144,1.033
Ti2SnPb,24.1607,22.696,-1.4647
NaEr(SnSe2)2,35.0462,30.2269,-4.8192
Pm2Pb,19.0263,36.8848,17.8585
Ba2SrS,13.5352,12.3308,-1.2044
Tm2HgC,29.9517,28.0074,-1.9443
Ca2TiMnBr,25.5644,21.9499,-3.6145
Ca2TaTc,35.5098,34.2295,-1.2803
ZrTiCu,39.3433,33.0849,-6.2585
Cs5AuO,25.5887,23.6076,-1.981
Dy3Ga3Pt,22.3494,21.5413,-0.8082
Dy3Ga3Hg,10.8325,14.3223,3.4898
ZrCuW2,45.7954,44.4017,-1.3936
Dy3Ga3Ir,15.5728,19.7482,4.1754
ZrTiCu3,27.1561,22.3545,-4.8016
CaBiPd2,18.5082,21.5496,3.0414
Eu2IrPb,37.7481,40.5466,2.7985
La3Ga3Ge,26.3745,19.8056,-6.569
Ca2TcTe,36.3046,32.5201,-3.7845
Sm3Ga3Ge,14.9576,17.006,2.0484
Ni(PdPt3)2,58.4354,41.4177,-17.0177
GaSiSe,19.0602,18.3578,-0.7024
SrCuTc2,52.1638,46.9984,-5.1654
LiPBr,18.0388,13.1256,-4.9131
InGaPb2F6,17.1006,16.4211,-0.6795
Mn2MoSe,65.8489,54.743,-11.1058
Re2NiIr6,47.0531,45.6165,-1.4365
La3InGa3,23.6111,18.4904,-5.1207
Ho3Ga3Pt,22.7502,21.9588,-0.7914
Mg2TaBr,13.8007,15.1782,1.3775
Ga3HgI3,10.8831,11.5932,0.7101
Ho9Pb3C2,37.6511,35.8282,-1.8228
Rb3Pr3GeSe8,24.8308,19.3668,-5.464
NaAcFe2O5,19.5252,17.5961,-1.929
La3Ga3Ir,25.9605,21.218,-4.7425
Ni(RhPb3)2,37.1901,36.6687,-0.5214
Li2CrRe,13.0857,14.6587,1.573
Nd3Ga3Pt,26.2187,23.666,-2.5527
Na3Y3MoO8,26.4389,23.0078,-3.4311
ZrGa2Ru,26.9144,23.6977,-3.2168
LaIn3,24.0587,21.4751,-2.5836
In3W,20.5338,23.4147,2.8809
LiCdP,14.6159,12.2417,-2.3741
RbCdGa2Au,16.8784,17.418,0.5396
ZrGaRu2,28.425,26.7826,-1.6424
Dy8Te4P3C,27.5358,26.7018,-0.8341
Sm3Ga3Ru,11.4734,15.03,3.5566
YCoRh2,48.5036,36.9463,-11.5573
Sm8Te4P3C,26.355,25.6259,-0.7291
ThNiAgPb,38.9033,40.3146,1.4113
Ag2TePb,36.4411,34.6479,-1.7932
Co2IrPt,36.3523,32.5102,-3.842
TcRu2Cl,33.0193,31.8848,-1.1345
Mn2OsSe,72.7222,62.694,-10.0281
Tm3Ga3Ir,17.0134,21.0898,4.0764
Y3InGa3,8.0393,10.1149,2.0756
Tm3Ga3Au,18.4294,21.8889,3.4595
YCoRh,48.5162,39.4599,-9.0563
Th3Ga3Tc,38.3477,40.5742,2.2265
CoGeSbC2,40.2349,29.8424,-10.3925
Pr2TeC,16.3701,15.8092,-0.5608
Ac2B3Pt12Au,69.2327,50.1815,-19.0512
Pm9Pb3C2,35.4468,33.8788,-1.568
PmScSnPd,24.3906,23.6791,-0.7115
OsPd3Se,29.9452,29.0494,-0.8957
TbErIn6,21.4685,22.8575,1.389
PRh2Br,27.9459,22.3253,-5.6207
PRh2Br,28.3135,22.3253,-5.9882
ScZnCu,23.0031,19.0029,-4.0002
Li6CoNiP2(CO7)2,27.1329,22.2063,-4.9266
Re3SiAs,39.0846,37.8778,-1.2067
PuBiRu,48.2194,50.7028,2.4834
SrCuW2,34.1317,28.7768,-5.3549
NaCdRe2,57.121,50.1476,-6.9733
OsPdSe2,39.1906,37.3039,-1.8866
Sc8CSe3S4,37.521,33.0696,-4.4514
POs2Br,26.0371,28.1709,2.1337
Co2PBr,20.4616,14.9982,-5.4634
Cd7Pb2,25.1596,26.5216,1.3621
In2CoBr,20.3432,18.6634,-1.6798
NaErMg14,5.6397,6.1648,0.5251
Sm9Sn3C2,28.678,27.0121,-1.6659
HfGaOs2,58.6151,52.1085,-6.5065
AcGaPt3,67.3747,51.0536,-16.3211
CrSbS2,36.6648,26.6478,-10.0169
Tb4Pr3Y2,14.3335,15.8523,1.5188
PrPuRh4,43.389,35.185,-8.204
CeYGa2Pd5,21.4733,20.5078,-0.9655
ScAsP4,25.4942,20.4265,-5.0677
TaCu,16.7673,21.3318,4.5645
ReSiAg2,29.8373,26.6114,-3.2259
TbPr2Ag,12.1564,13.296,1.1396
Th8Te4Ir3C,54.5139,53.9522,-0.5617
CaPm2Th,25.5305,32.4344,6.9039
ReSiAg2,29.6618,26.6114,-3.0504
Sc2ZnCu4,24.6386,20.1616,-4.477
VCoHg3,28.0185,22.2367,-5.7818
Ba6Sr2Ni,5.5287,4.795,-0.7337
Nd2CoHg,13.5709,16.4291,2.8583
TcSb2Cl,47.2926,38.7953,-8.4973
Ce6Tc2Ni,39.0341,36.651,-2.3832
LaOs8,43.2423,44.7348,1.4925
La8Ir,50.6937,35.4934,-15.2003
Ni(Pt3W)2,69.7184,51.2169,-18.5014
Ce4CoHg2,14.8614,16.4381,1.5767
Sm3GdRu,24.0913,26.1094,2.0182
ZnTeMo,24.8963,22.7737,-2.1225
Zn2NiBr6,9.4751,9.9941,0.519
GdHfRu2,50.8641,43.2574,-7.6067
Pr2InSe3,24.5894,20.471,-4.1183
CuReAs2,17.0052,19.9117,2.9065
Ba2ErScO5,22.0452,23.0641,1.0189
ErMgIn,16.945,19.1119,2.1669
GdSc2Rh,21.6769,21.1378,-0.5391
Sc3ZnAu,14.1857,15.4045,1.2188
AcTi(PtO4)2,20.2146,16.6064,-3.6081
CuRe2As,24.8713,28.5977,3.7265
Ac4Pt3,68.2723,59.2671,-9.0052
Ac5LaPt5,73.6285,59.1951,-14.4334
Li5Se4,20.9932,17.3814,-3.6118
Sc2CdGa2,4.2771,7.4785,3.2015
Ba2PrScO5,21.9142,20.8147,-1.0995
Cu2ReAs2,9.3376,12.0258,2.6882
Co(Sn2Hg)2,12.7577,14.0637,1.306
Ba2ScPbO5,26.3011,25.856,-0.4451