Formula,E_hull_DFT (eV/atom),E_hull_ML (eV/atom),Delta (ML - DFT)
YPu(MnP)4,54.4743,43.4206,-11.0538
Sn(PdPt2)6,63.7442,45.9167,-17.8274
InSb2Se,39.3881,32.3933,-6.9949
Mg2Ge2Ru3,10.6101,12.7067,2.0966
Th2Mg2Ge3,17.9578,22.316,4.3583
NaZnSi2Tc,32.5417,25.3366,-7.2051
Co(CuPd2)6,16.9926,16.9726,-0.02
FeP2SeS,37.597,31.8361,-5.7609
La2PuHfN4,38.8568,31.3827,-7.4741
K(GeBi)2,27.9392,28.5017,0.5625
Y2CdHg,30.1238,23.4932,-6.6307
RbLi(SO3)2,15.7889,13.5974,-2.1915
Th3Au2,51.8823,56.2322,4.3499
MnCd2Pb,44.6765,40.6257,-4.0509
Sr2Ag5HgPd2,18.5162,15.8269,-2.6893
TmF2,13.1639,16.1073,2.9434
YCdHgPt,39.2256,30.3539,-8.8717
Sc2VSi2Rh5,46.4172,34.5173,-11.8999
Sc2PdRhC,30.2191,22.9784,-7.2407
Y2Cd2Hg3,19.5666,16.3613,-3.2052
Y2CdHgRu,28.0239,23.084,-4.9399
CaHf3Se,113.6815,80.9264,-32.7552
LuNiRh,16.186,18.281,2.0949
Nd2Y(CdHg)2,19.4333,19.1089,-0.3245
Li2PrHfSe4,40.1713,31.3675,-8.8038
BaHf2GeSe,70.9107,51.54,-19.3707
Ba(HfSe2)4,72.6344,53.8535,-18.7809
SrLaFe,38.0847,28.1891,-9.8955
Cs2SrSn,19.0159,20.5643,1.5485
Hf2Rh2Se,77.7305,55.5486,-22.1819
AlSi2Os,28.668,25.1854,-3.4827
Cr2NiCl,23.9508,20.5623,-3.3885
KPd3W,21.511,22.681,1.1699
Gd2HfSe,62.3539,51.013,-11.3409
TbScIr,35.6475,28.5145,-7.1329
Na(Ga2Ir)6,19.978,20.596,0.618
ReAgPt2,62.4951,48.9373,-13.5578
CsMgUO4,11.7717,12.8872,1.1155
TlI3Br,26.4449,26.6645,0.2196
Sc3SiC,25.2911,20.4134,-4.8776
Pr(Tm2Th)2,36.5201,38.3431,1.823
Re2Ag2Pt,47.3025,40.5482,-6.7543
LiPa(SbO3)2,25.4444,24.6376,-0.8068
LiTa(SbO3)2,29.7896,28.8614,-0.9282
Re2AgPt,50.5187,45.3996,-5.1191
Pm2DyYHg4,12.1356,12.2022,0.0665
Pr3Sm5Sc,15.0573,14.7832,-0.2741
Tl2IBr,33.3504,34.0034,0.653
Ac3ZnCd,40.7809,43.4013,2.6205
Ac4PrPd15,25.2646,26.9345,1.6699
AlSi2Os,28.7571,25.1854,-3.5717
Dy2Y2Hg3,21.8842,18.951,-2.9332
SrAcGd2,34.3715,36.7251,2.3536
VOs2I,53.1457,49.5382,-3.6075
RbRu,0.0,32.0094,32.0094
Al2SiOs,25.8308,24.4455,-1.3854
RbTlTc2,61.291,52.401,-8.89
HfVTeSe2,82.3576,63.0949,-19.2626
Pm3ZnCd,16.4892,19.4588,2.9696
Tb(Pr2Tl)2,15.597,17.4618,1.8648
AlSiOs,25.8908,25.6592,-0.2316
ZrCrOsSe2,50.0348,42.2749,-7.7599
Ga(TcNi)2,34.4605,31.24,-3.2206
RePt2W,64.3572,53.867,-10.4902
Rb2TeAsBr6,19.8697,18.0327,-1.837
Sc2NbCd,43.0657,38.8821,-4.1836
GaTcNi2,28.2396,26.6459,-1.5937
RePtW2,51.6928,49.3752,-2.3176
NbPdCl2,41.5856,37.374,-4.2116
Ga4I5,16.2273,17.1607,0.9334
BaLi2Ac,20.4172,20.136,-0.2811
Sc2NbCd,42.8178,38.8821,-3.9357
K2AuI,22.7206,22.7279,0.0073
Tb2TmHg4,11.8156,13.1181,1.3025
Ga2TcNi2,18.5542,18.6696,0.1155
Nd2Sm3Mg2,18.5299,20.7937,2.2638
Tl2IBr4,24.0163,24.4463,0.43
Re2PtW,52.2952,50.0761,-2.2191
Ba4Sr7Ac,13.4104,14.2601,0.8497
RePPt2,75.8074,56.0637,-19.7437
Y3Fe2Hg,21.7535,17.6734,-4.0801
Sr2Mg2Sb3,19.5088,17.518,-1.9907
LiAc2ErTe5,34.7968,35.5975,0.8007
CsTl3Zn,34.9236,35.9625,1.0388
RePPt2,76.0041,56.0637,-19.9404
NdGaPt2,52.2759,40.2388,-12.0371
YFeHg3,14.753,10.5121,-4.2409
Hf(TiFe)2,25.3312,17.9946,-7.3367
NaFeF2,17.7429,16.4995,-1.2435
HfOsSe3,66.6201,52.1578,-14.4624
BaSrCaAc,22.5742,22.5147,-0.0595
Cs2PuO4,15.5743,18.2736,2.6993
Cs6Ge2O7,5.5671,6.0545,0.4875
Cs2DyO3,5.5623,8.841,3.2787
GdLuAu2,38.504,41.0771,2.5731
YLuZnHg,22.5219,20.8802,-1.6418
Th2RuPt,58.7861,55.1197,-3.6664
DyYZnHg,20.959,18.999,-1.96
ZrSn2Ru,38.9619,37.2946,-1.6673
CaAcLa3,40.9904,31.8851,-9.1053
Ac2Pm3Mg2,29.8315,31.9999,2.1684
Zr2GeOs,53.8899,50.9185,-2.9714
TbDyRu,23.0471,26.3402,3.2931
K2VBi,52.468,44.7993,-7.6687
LiSbMo,20.4292,18.7814,-1.6478
SmZrOs,37.0686,34.4947,-2.5739
Nb(NiGe)2,35.174,28.0084,-7.1657
Rb2Mg2S3,24.3051,18.6477,-5.6575
Pr2Nd5Er2,19.1734,22.2162,3.0428
MnNb2I,101.9992,83.7952,-18.2041
Ba6IrPd,7.4192,8.7495,1.3303
GeBiRhO6,5.9291,7.264,1.3349
PtPbBr3,42.2779,32.964,-9.3139
Sm2Mg2Sc3,10.1105,11.697,1.5865
Sn2Te2F,37.2441,34.1672,-3.0769
ZrMnOs2,61.166,58.191,-2.975
Sn2Pd5Pt,29.9284,25.088,-4.8404
LiPmNd2Te5,25.506,26.5071,1.0011
Ho3(MgTc)2,39.3936,35.91,-3.4836
Ba2LiPaTe5,25.8479,25.9665,0.1186
NaCaScSi2O7,23.98,20.6257,-3.3544
Ba2LiUTe5,26.0075,26.0055,-0.0019
LiAc2BiTe5,38.373,38.4741,0.1011
Ba2LiHfTe5,34.5261,29.2677,-5.2584
NaVPb2,61.3115,54.5259,-6.7857
Sr2CaTaIn,27.1285,21.2796,-5.8489
HfTaCo4,47.9621,36.6264,-11.3357
Cd2SiIr,24.5372,25.2298,0.6926
K3Na5Tl2,24.6429,22.0502,-2.5927
CaTa3In,28.8472,31.0237,2.1765
Ca2TaIn,17.1494,19.0576,1.9082
LiNd2UTe5,30.1322,31.1109,0.9787
Zr2Ge2Pb,53.211,47.6467,-5.5643
Zr(GeOs)2,40.1448,39.5402,-0.6046
Zr3GeOs,70.0206,60.4393,-9.5813
Zr2Si4Ir3Os,42.0161,37.4947,-4.5214
Rb3SrSn,8.1854,8.0626,-0.1228
Ac3ZnIn,40.4581,42.9565,2.4984
Ta2Al2W,23.9113,27.8908,3.9794
Pt3PbBr,73.2728,53.3548,-19.918
RbSrSn3,16.2424,16.9777,0.7353
Zr2Ti5Os2Pd,24.949,24.4611,-0.4879
Y6Hg3OsRu2,31.0725,25.022,-6.0504
Li(TmPt)2,47.1148,38.3713,-8.7434
ZrCdGa2Os,35.7575,33.6019,-2.1557
Na2HgPbF6,9.5028,10.3227,0.8199
MnGeP2S,35.5969,31.1525,-4.4444
Tm2PdPt,34.798,31.3855,-3.4125
La3TlZn,38.4844,29.9737,-8.5107
BaGa2Os,17.4407,17.6907,0.25
LiScMo,12.7394,14.4491,1.7097
BaGaP,15.6669,12.7157,-2.9513
NdSm2(InPd)3,20.0426,22.1743,2.1317
SiIrOs3,38.112,39.855,1.743
Ba3GaP2,9.92,7.4512,-2.4688
BaCeGa3,7.682,8.7949,1.1129
YFeHg3,15.6008,10.5121,-5.0887
Ba3(GaRu)4,14.2162,11.8973,-2.3189
Nd4BiPd15,20.3209,22.0931,1.7722
ZrTaVOs,87.9602,75.9377,-12.0225
SmInPd2,14.1281,17.5555,3.4273
YFe2Hg,17.8766,13.4963,-4.3803
BTePS2,34.3892,30.2317,-4.1575
SrFePb2,41.3595,39.1366,-2.2229
SrFePt,49.8542,37.0932,-12.7611
Cu2AsIr,17.0418,19.71,2.6681
Sc4CuTe,17.0022,14.2584,-2.7439
Co3GeRh,16.3457,14.9114,-1.4343
ZrTiOs4,46.2214,45.9436,-0.2779
Tm3Sn3Pd2Pt,32.6549,28.9553,-3.6996
Ba(GaRu)2,14.2877,12.5798,-1.7079
LiScMo,0.4876,14.4491,13.9616
BaVGa3,32.4269,26.0503,-6.3766
LaTbErTh,43.4391,41.9922,-1.4469
K2TlRu,23.4168,23.9023,0.4855
Y2FeHg,26.7397,20.4856,-6.2541
YPu2ThP4,35.3559,34.8907,-0.4652
HfGeRh,66.6466,49.52,-17.1266
SmPu3Pd4,38.5192,40.4069,1.8877
GdBe13,0.0,0.0,0.0
LiLu(FeP)2,29.5746,25.4528,-4.1218
La2ZrRu,54.7263,43.4856,-11.2407
CdPd3I,19.7756,20.7804,1.0048
GeOsRh3,40.8391,32.6882,-8.151
LaZrRu3,40.3921,34.8814,-5.5107
Ba2SrGa2,6.9639,5.7359,-1.228
DyYZnHg,20.9758,18.999,-1.9768
BaVGa2Sb,40.3526,31.1809,-9.1717
InAgPb,31.5472,31.3143,-0.2328
P2IrOs,29.5317,30.8857,1.354
BaGaPb,22.9634,22.0982,-0.8652
Ca2Ac2Mg3,20.9639,22.5396,1.5757
PIr2Os,39.9614,39.6782,-0.2832
PIr2Os,39.8307,39.6782,-0.1525
PrAsF,3.2395,5.2985,2.059
As2AuI,23.3161,24.298,0.9819
CsSi2,10.4591,10.0462,-0.4129
Ca2BeSb,20.3099,13.7874,-6.5225
CeNdGd2,27.2123,30.2936,3.0813
Ni2Pd2Pb,20.4013,22.5275,2.1263
MnGe2Rh,41.5835,33.4499,-8.1336
ZrBPS2,44.66,37.6914,-6.9686
GaAgPb,27.7518,21.6071,-6.1447
NaCaFe3,26.5349,21.076,-5.4589
P2IrOs,29.7612,30.8857,1.1245
LiYHf,35.4442,26.2555,-9.1887
Ba2Ga4Sn3Pb,16.3354,15.7108,-0.6246
Pu(TaIr4)3,43.4297,46.5301,3.1004
Li2CeIn2,14.8478,14.4932,-0.3547
RbBa2ZrGa,23.9235,19.0542,-4.8693
Ba2GaSi,7.9479,5.7957,-2.1522
HfTc3Ni,87.7965,68.7818,-19.0146
Zr2TiOs2,48.7196,44.8598,-3.8598
BaGaC3,41.7741,28.1266,-13.6476
Re2NiAs,35.5441,28.8197,-6.7245
RbGe2Mo,11.4006,11.4147,0.0141
SrNiC2,39.272,27.9216,-11.3504
LiSi3Pb,24.5044,20.2674,-4.237
GaRuAu3,35.0999,35.2936,0.1937
YHfS2,59.3035,43.7067,-15.5968
Os2AuBr,37.109,39.0887,1.9798
SrCeCd4,20.6165,20.1536,-0.4629
CuPRu2,15.4082,15.6715,0.2633
ZrOs2Pt,59.0695,54.0947,-4.9747
Ba2YCdHg6,12.7126,11.1156,-1.5971
CsCa3O,27.1483,24.6589,-2.4894
CeFePb2,29.1811,30.3801,1.1991
TlRhBr4,25.0634,22.9905,-2.0729
SbSeO3,31.644,27.04,-4.604
Nd6CoNi2I3,25.1779,24.3292,-0.8487
AlGa7,7.7522,8.6515,0.8993
Zn2Fe2Bi,17.5708,16.2618,-1.309
Sc2TaRe2,77.1312,64.5652,-12.5661
EuIrF6,14.2551,15.0156,0.7605
ZnCr2,3.9271,4.1747,0.2476
AlCuMo,23.9005,17.5172,-6.3833
ZrRuF2,25.2287,23.6306,-1.5982
Zr2OsPtSe,75.6491,61.6855,-13.9637
CuTcRh2,49.7211,39.5113,-10.2098
Cr(NiSb)2,28.7682,22.7676,-6.0006
EuUF6,15.3701,18.1051,2.7349
SrFeRu2,29.65,24.2839,-5.3661
CuNi2Ir,15.7749,19.5993,3.8243
CaEr2In,20.7085,22.6296,1.9211
Nb2CdB,79.7038,65.697,-14.0068
TlRhBr2,30.5898,27.5792,-3.0106
CsScCu2,23.9284,20.3798,-3.5486
TlRh2Br,40.6291,33.5834,-7.0456
NaNb2TlCd,77.1946,65.557,-11.6376
GaCuOs2,20.6046,25.5084,4.9038
Nb2SnB,76.0992,65.8466,-10.2526
In2SnSe,27.023,25.8674,-1.1556
Tm3ZnPt,32.357,29.963,-2.394
NaCrI2Cl,20.4473,18.6949,-1.7524
Ca2Co2Os,12.8143,13.1686,0.3543
PPdRuN,27.1101,25.6411,-1.469
Li(AcAl)2,25.5736,27.8341,2.2605
Li(CdSn)2,16.0026,17.0996,1.0969
BaAc3,48.4534,50.5921,2.1387
NbSn2Pt,62.3617,53.0042,-9.3575
HfScHg4,24.4881,18.3566,-6.1315
K2SbIr,28.7308,27.1681,-1.5627
Zr3ZnIn,58.1323,50.1206,-8.0117
Zr3NbZn,81.3413,68.1462,-13.1951
BaSr7,11.7808,12.5903,0.8096
BeSbAu3,37.5051,36.3561,-1.149
TlVPS2,61.4858,51.7682,-9.7177
BaSr7,11.7828,12.5903,0.8076
Sr3Au,13.9488,17.991,4.0423
Sr2TaNb,60.81,49.1229,-11.6871
SrVSn3,42.2658,36.721,-5.5448
CeRuN2,34.2679,32.5523,-1.7156
Ho2Ge4Rh3,26.0417,23.0776,-2.9641
PuZn3Ir,30.6382,29.3677,-1.2705
IrRu2Br,31.7291,27.3063,-4.4227
BPt4,65.3799,45.5054,-19.8745
NaZrOs2,52.287,49.1293,-3.1577
SrTaFe,32.7327,30.1413,-2.5915
InSi2Ru,20.1449,16.1517,-3.9932
BaSr3I8,16.9866,17.9704,0.9838
Y(Er2Hg)2,23.9795,23.7542,-0.2253
InSi2Ru,19.8067,16.1517,-3.655
La2PrAs,26.6806,19.9349,-6.7456
PrYHg2,10.8689,8.8745,-1.9944
Dy2Al2GeRh5,28.045,22.193,-5.852
YZnHgPd2,19.4192,16.9695,-2.4497
Ce2IrPb,35.9422,39.2763,3.3342
Na2Tl3Sn2,34.6347,33.6394,-0.9953
Nd7GaI12,21.586,22.2801,0.6941
Tl3AgAu,46.5277,45.4103,-1.1174
LaCuNi2,12.4801,11.9548,-0.5253
Nb(SnBr)2,41.688,37.6868,-4.0012
InGa3Tc,27.6584,25.2107,-2.4477
ScReBi2,55.1337,48.6183,-6.5154
ZrCrSb3,48.9968,38.62,-10.3769
Sr6IrAu,23.3486,21.9936,-1.355
Re2HgBr,24.4462,26.0898,1.6436
Nb3BBr,87.9605,72.962,-14.9985
TlRh2Br,36.2824,33.5834,-2.699
Tl5(Hg4I)3,12.9316,14.0851,1.1534
ZrZnSnOs,42.0455,40.3418,-1.7036
Ba(TlPd)2,23.6498,25.9654,2.3155
CsLa3O,47.6997,38.4691,-9.2305
Pa2RuPt,60.053,57.286,-2.767
Sr3ThPt8,67.6243,50.6985,-16.9257
Zr2TaReOs,64.2274,59.0471,-5.1803
CsRbGe2,11.046,11.1906,0.1446
Nb2Fe3B2,40.2675,35.4925,-4.775
SrAc2IrPt,52.2884,45.027,-7.2615
ThPaGa5Os2,28.5877,31.195,2.6073
Y6HgOs2,21.127,19.834,-1.293
LuZrNiOs,44.5858,43.8128,-0.773
Pu3ScTl3S8,56.4883,48.7936,-7.6947
Zr2TlAg,69.7014,60.1009,-9.6005
CsZrO3,1.5723,4.8363,3.264
ZrTl2Ag,57.984,52.7116,-5.2725
V3OsI,92.3238,74.9199,-17.4039
ZrTlAg2,53.1029,45.4038,-7.6991
Ca2PtF,25.7323,20.0942,-5.6381
BeCr2Bi,13.0064,14.5517,1.5453
BeCr2Cd,5.8504,6.4384,0.588
Nd4NiCI2,25.8035,25.1882,-0.6153
MnCoP2S,43.0469,32.7738,-10.2731
SrYHg,21.1686,17.438,-3.7307
Au2CI,42.0619,38.578,-3.4839
Sm2Mg2Al,11.4814,13.9836,2.5023
Sc2Mo,20.8569,21.6265,0.7696
Ba2Mg2Pt,18.536,11.9233,-6.6128
ScMo,28.1927,0.0,-28.1927
BeCu,0.0,1.0491,1.0491
Er4Cu2Tc,31.8413,32.0732,0.2319
Rb(GeTe)2,22.019,20.0591,-1.9599
TlAgAu2,44.2536,43.1053,-1.1483
Cs2K3NpO6,11.3762,13.0538,1.6775
Rb3GeTe,12.4823,10.807,-1.6753
Zn(GeTe)2,22.375,21.6065,-0.7685
LaPrF,17.1535,12.8593,-4.2942
ZnGeTe,16.9235,17.9366,1.0131
CrSb2Ir,37.0674,31.9302,-5.1372
LiTm2Si4Ir3,26.3984,25.286,-1.1125
CsAc(AsPt2)2,57.7554,44.7739,-12.9816
CrSbRh2,37.7509,28.2947,-9.4562
Mg3(TlSn)2,21.5069,22.6447,1.1378
LuPN2,25.6781,23.8755,-1.8026
In2Pb2Se,35.4205,34.9183,-0.5023
Nb6GaB,109.4733,90.4219,-19.0514
HfCuTe2,53.2982,43.9805,-9.3177
Mn3NbB,90.243,70.0954,-20.1476
K2WO4,-0.0,-0.0,0.0
SrSmGd,22.7222,25.1769,2.4547
YGaHg,15.3622,13.7589,-1.6033
HfSnP2S,46.292,37.8903,-8.4018
BaZnCd3,11.3635,12.9928,1.6293
TcNiBi3,53.4755,50.7433,-2.7322
Cs2YHgCl6,21.2461,21.623,0.3769
Nd6GaOs2I3,25.1059,27.0871,1.9812
AcEuYHg,35.8612,33.6559,-2.2053
NbB3Rh,43.2857,36.8114,-6.4743
PmYHgRu,28.999,24.459,-4.54
CaPm2YHg4,12.507,12.1346,-0.3723
InFeTe2,29.3058,25.9275,-3.3783
BaSr11,12.3421,13.2781,0.936
NaCaHoTl,27.086,27.3946,0.3086
NaAlTlCd,24.4621,24.2876,-0.1745
RuSe2SN,54.6578,43.6104,-11.0475
LiDyYEr,17.9382,20.5569,2.6187
NaCoOs,18.9669,22.6748,3.708
Sr2Sm(Cd3Rh2)3,29.6092,24.1722,-5.4371
InGa2Cl,7.4691,8.9285,1.4594
ZnIn4Ru,17.8439,18.9579,1.114
ZnSbTe,31.6732,28.3522,-3.3211
POs4Se,37.8196,38.6145,0.7949
PrY2Hg,23.9554,18.4368,-5.5186
Pr3Sm5Sn2,10.4288,13.7104,3.2816
Y(Nb2Te)2,96.2858,80.6251,-15.6607
Sm5CuSn3,25.9099,26.415,0.5051
Sr2PdPtPb2,34.942,32.3778,-2.5641
GdThBeZn,31.5704,29.9303,-1.64
Ba3Al3Ge2Au,20.972,16.8471,-4.1249
In3Bi3I,32.3011,33.4426,1.1415
Zn2SbTe,25.7392,23.156,-2.5832
ZnSb2Te,35.1296,29.6282,-5.5013
CeCu7Se6,25.361,22.0289,-3.332
Co2GePb,15.9991,16.9519,0.9528
Sc2HgAs,17.3164,14.664,-2.6524
Tb8Cu4Ir3Ru,24.6863,25.4759,0.7896
GdZrBeZn,39.6082,32.8025,-6.8057
SbBr,40.9243,37.3552,-3.5691
ZnInPb2,33.2382,35.329,2.0908
NaCoW2,22.6838,26.4817,3.7979
Zn(WC)2,34.6215,30.3863,-4.2352
SmY2ScHg4,15.8503,13.6267,-2.2235
Cs2K2Te,20.6774,20.2407,-0.4367
YErNiHg,48.4858,44.2378,-4.2481
K3BiI6,19.0865,19.8406,0.7541
Sc4InTc,41.1058,35.7922,-5.3136
YRuBr,31.5933,28.1775,-3.4159
HfCu2Au,51.0029,41.7714,-9.2315
Ru3WBr,44.9396,32.5853,-12.3542
SrFeTe2,35.4234,31.4068,-4.0166
LiPrYHg,13.2039,10.3492,-2.8547
HoTm4Cu5,18.1758,20.3316,2.1558
ThUGa5Os2,28.9764,31.0392,2.0627
HfZr3In,83.9594,66.433,-17.5264
PuHfZr3,92.2526,76.7734,-15.4792
NaNdYHg,24.8714,21.4204,-3.451
PmGdBeNi,17.0461,18.0968,1.0506
Nd8GeIr3Cl4,20.9715,22.2609,1.2893
AcSmCu4,19.2093,21.1514,1.9422
YInHgAu2,33.1499,30.9644,-2.1856
POsRuS,22.6465,26.8514,4.2049
Pr2In2Ni15,9.4706,9.5783,0.1077
In2SbRh,33.3463,29.2601,-4.0861
LiNd2Ge4Ir3,21.0023,23.141,2.1387
Nb3BPd,90.6952,75.6354,-15.0598
NbPd3,41.4724,38.5132,-2.9591
Be3Si3(AgO6)2,0.0,0.0,0.0
CsGdO2,2.864,6.6237,3.7597
Th2GaCu3,22.2659,25.4445,3.1786
SrTl2Fe,40.4462,37.8321,-2.6141
Na2TlCu,24.8157,23.707,-1.1087
PmGa5Pt2Rh,32.2862,25.4284,-6.8577
Th6CuTc2Te3,58.9525,56.8484,-2.1041
LiHg,4.4753,3.8192,-0.6561
CsRb3Re,15.722,15.2984,-0.4236
Y3HgCl,52.4104,44.4469,-7.9635
ZrSbPb2,58.2371,53.4667,-4.7704
LiHg,3.0076,3.8192,0.8116
Sr2CeCu2Se5,29.7247,26.9314,-2.7933
CsZr3O,66.4875,55.5822,-10.9053
SrNdPd,18.2451,20.2344,1.9893
Nd4TmSc,22.4204,25.0894,2.6691
YNiHg3,33.1011,28.6408,-4.4603
Tb4NdSc,22.8851,25.21,2.3249
K(Cu2As)6,8.0972,8.5091,0.4119
Ta3MoBr,28.9788,31.1219,2.1432
In2PdCl,11.7135,13.8589,2.1454
CaRh3Se,58.338,42.1004,-16.2376
Er4NpSb5,40.2853,36.5352,-3.7501
LiTm4ScS8,42.4154,34.9771,-7.4383
W3Se,41.35,44.8415,3.4915
CaRh2Se,58.6141,43.9084,-14.7057
YRh2S,34.7672,26.0214,-8.7458
HfScPd4,38.617,32.0463,-6.5707
CdSi2Ag,20.4458,16.1915,-4.2543
Zr2CdSi,57.2981,48.093,-9.2051
Hf2NbAs,101.3426,77.8123,-23.5303
NaW3Au,40.32,41.889,1.569
CdSi2Ag,20.3221,16.1915,-4.1306
CrPd3I,17.8165,18.4621,0.6457
TlCrI2N,28.7553,26.4494,-2.3059
Co2Ni3Pt,38.52,27.958,-10.562
CsRbTe3,30.6114,29.0188,-1.5926
GeP2IrS,29.811,26.9787,-2.8323
MoAsBr2,12.6309,13.8511,1.2201
GaTeIr2,29.056,33.1854,4.1294
CsRbTe2,27.3644,26.7595,-0.6049
CdSiAg2,24.2995,20.0989,-4.2006
LaPr2Sc,11.8305,9.1715,-2.6591
Li2CoPt,24.4003,18.3798,-6.0205
LiTbYPd,22.9807,21.6965,-1.2842
MoC3Br,43.8847,31.8545,-12.0302
ScSnPd4,20.7746,20.0517,-0.7229
Cd2SiAg,21.3573,18.1894,-3.1679
SrFeW2,36.3996,34.9007,-1.4989
CrSnIN2,26.4625,21.2954,-5.1671
CuSb3Te,37.1292,30.4435,-6.6857
Pu2TlI,54.2631,55.6351,1.372
GaSbIN2,17.9391,15.3984,-2.5407
TlSb2Te,42.8063,37.8442,-4.9621
HfZrPt3,93.3549,66.7363,-26.6186
CdSi2Ag,17.4311,16.1915,-1.2396
HfZrPa3,79.9675,73.0572,-6.9102
Na3(SrAu)2,27.6069,25.9693,-1.6376
NiSeI3,25.1181,23.4655,-1.6526
Y2NiHgO,59.8907,50.3345,-9.5562
MnInPd,33.7732,29.6579,-4.1153
LaZrBi3,45.3784,43.1557,-2.2227
CsGe2C,27.7701,23.5593,-4.2108
RbNiI6,17.9625,18.839,0.8765
AcYNiHg,57.411,52.5953,-4.8157
Tl2IBr,33.2933,34.0034,0.7101
Rb3MoBr8,8.6005,9.3509,0.7504
TiMoBr3,11.6649,12.2214,0.5565
ScAsW2,35.8863,33.9626,-1.9237
LaMoBr3,20.1567,17.1747,-2.982
RbNiSb3,34.3408,25.7663,-8.5745
ScTiTe4,25.0342,26.0786,1.0444
YErHgTe,29.6466,27.3161,-2.3305
Na3(TlPb)2,39.9812,38.1762,-1.805
Cs3(NaHg)2,14.2955,13.4583,-0.8372
Na3(BiSb)2,38.7952,34.0645,-4.7307
Ba3(MnSn)4,43.5356,35.517,-8.0186
PrGaNiN,5.9697,5.5923,-0.3773
ScBi2S,47.304,46.6108,-0.6932
Na2In2Sn3,21.5242,20.6379,-0.8863
TmW2,5.8427,20.9143,15.0716
YHgIrO2,27.1883,26.0519,-1.1363
CrOs2Rh,26.8553,28.3753,1.52
GdInSb,23.0474,22.6771,-0.3703
Cs2KSe,26.5532,24.6133,-1.9399
LiPBr2,13.1723,12.7974,-0.3749
Re2TeOs,41.5695,46.5848,5.0152
SrYInHg,20.4624,18.2532,-2.2092
Cs3TaTe4,21.1495,24.4421,3.2926
ZrFe2Pb,36.4807,31.988,-4.4927
MnPtI2N,49.0462,39.6153,-9.4309
YbGa4Ru,10.0948,12.6789,2.5841
Mo2IrPbF,34.5012,29.8397,-4.6615
Re3TeOs,42.8854,44.4967,1.6113
LiPBr,13.1533,13.9112,0.7578
CsTl2Sn,36.65,38.0863,1.4363
LaY2HgRu,33.6388,24.9149,-8.7239
P2WSF,70.4128,59.0565,-11.3563
Mg2MnH8Pt,17.9339,13.9667,-3.9672
SrTb(CuGe)4,10.0806,11.4863,1.4057
Rb2(CuSe)3,16.8948,14.5906,-2.3042
Rb(InP)2,15.085,13.3773,-1.7077
RbTe,10.2227,10.1836,-0.0392
Cs2Ge2O3,10.0686,9.76,-0.3086
NdMnSb2,46.7616,38.4025,-8.3591
Li2PBr,18.2655,14.2117,-4.0538
Sr2IrI,23.5727,22.2392,-1.3335
YHgPd,0.0,2.5603,2.5603
CaCrSn,8.5788,8.2972,-0.2816
GdTiRh2,32.398,27.5479,-4.8501
Er4Cu3Sb8,32.5045,28.0599,-4.4446
LaYTc2Hg,79.1506,62.9796,-16.1709
MnSeI2N,40.6081,33.1449,-7.4632
Cs2TiCuRh,23.1684,20.3239,-2.8445
Na(TiRh)2,24.0204,19.0197,-5.0007
RbTe,12.8262,10.1836,-2.6426
Ti6RhPb2,20.321,20.8189,0.4979
RhWAu,45.1254,43.0755,-2.0499
K(ThZn)2,32.0091,33.6705,1.6614
LaScCr,32.9493,24.0398,-8.9095
MnTlTe2,54.0851,48.3208,-5.7642
La2ScCr,37.6772,27.162,-10.5153
YHgTe2,32.9551,28.7489,-4.2062
In3Ag2Au7,37.7389,37.2265,-0.5124
SrSiIrO6,19.534,16.4487,-3.0853
MnTlTe2,53.7607,48.3208,-5.4399
Nd4Ga2I5,19.982,21.2539,1.2719
PrFe2Sn7,18.4318,18.2117,-0.22
MnTlTe2,58.8672,48.3208,-10.5464
PrNbTe2,54.9376,48.79,-6.1476
YPa(CuGe)2,26.9419,25.8844,-1.0575
TiAlRh2,26.663,20.4524,-6.2106
Hf5TiRh4,91.2934,65.0352,-26.2582
TiRhBr3,17.9531,14.914,-3.0392
DyNp(CuGe)2,21.191,23.5289,2.338
PaPS,42.5684,44.9394,2.3711
V2RuS,74.7121,60.221,-14.4912
SmYHgTe,28.5221,26.2413,-2.2808
TiAl4CuRh2,15.6894,12.9325,-2.7569
Dy3CuRu2,20.6673,22.1136,1.4464
Sc6NiSb2,16.3025,14.1219,-2.1806
Hf2Nb2In3,90.016,71.4027,-18.6134
Sc6TlBi3,18.517,21.2463,2.7293
Sc3In5Te12,20.3489,18.7047,-1.6442
LiV2In,66.2896,53.255,-13.0346
Cs2AlNi,12.2683,14.049,1.7808
SmY2Hf,49.3479,40.7351,-8.6128
LiTiRh3,30.9678,22.2166,-8.7513
FeTePt2,56.0654,44.2718,-11.7935
TiTeRh2,29.4966,24.5441,-4.9525
SrFe2,14.4611,12.7813,-1.6798
TiP2Rh,14.8018,13.777,-1.0248
TiPRh2,19.2678,15.8369,-3.4309
KSeBrN2,16.284,14.4259,-1.8581
Ca2TeIr,30.7713,25.6635,-5.1078
TiSiRh2,35.35,27.1795,-8.1705
YErHgPb,32.6646,30.9907,-1.6738
Rb2YHgCl6,13.1258,13.2984,0.1727
Nb2In2Ru3,52.8595,48.1219,-4.7376
Ti(SiRh2)2,40.6744,28.8307,-11.8438
TiRhBr2,19.4112,16.7399,-2.6713
Sc3MnSe6,32.8811,26.9056,-5.9755
Sc2Be15Ir2,8.3981,7.5639,-0.8342
CaMg2TcH6,12.3653,10.5238,-1.8415
Nb3(PdRh)2,79.5069,65.8562,-13.6507
AcMg(H3Pt)2,21.0647,16.7149,-4.3499
BaHfCu3,34.2062,25.2794,-8.9268
Nb2CuB,83.0699,67.7576,-15.3123
Nb3(OsRu)2,77.2652,68.7669,-8.4983
Nb3(RuPt)2,90.5654,73.6545,-16.9109
Pr3In3Ni2,14.1906,12.5402,-1.6504
CaY2ZnHg4,14.4917,11.1582,-3.3335
Rb3La2ScS6,39.2991,29.5219,-9.7772
ZnHgPt,32.183,23.8239,-8.3591
Pu2Nb2Ru3,68.0072,62.9437,-5.0636
NaGd(CuAs)2,13.9185,15.4008,1.4823
CuSnPb,56.9717,51.5604,-5.4113
CuPRh2,31.627,23.0118,-8.6152
PrGe3Au,14.0189,15.1459,1.127
Pm4Er3Ir4,32.2841,34.5249,2.2408
YPuOsRh,44.9059,43.296,-1.6099
Ga2AgPb,22.2916,22.1622,-0.1294
Li4PrDy,4.1877,5.5255,1.3377
Nb3(ReW)2,82.9604,75.59,-7.3704
NbZn2B,40.5026,35.0727,-5.4299
Nb(BBr)2,30.658,25.9988,-4.6592
Cu(GeRu)2,5.8974,9.3972,3.4997
Al2V7Ga3,77.7983,61.8039,-15.9944
Na2Al2Ag,14.9013,12.3897,-2.5116
LiNb2B,64.6488,57.5842,-7.0646
LaY3Hg2,29.0564,20.6676,-8.3888
TaFeTe,27.0993,28.7443,1.645
Na(Ag2Pb)2,36.4737,31.6336,-4.8402
Tl2IN,30.0567,30.5315,0.4749
Hf2AsPd,69.8259,51.9525,-17.8734
Y3Hg2Pd,28.3157,21.7208,-6.5949
In2MoAs,12.2654,15.5224,3.257
AlTcGe,47.9102,39.3008,-8.6094
YHgBiP2,26.788,22.7595,-4.0286
GdAsPd,0.0,6.3875,6.3875
NbInB2,35.7007,33.5023,-2.1984
Al3V7W2,82.4872,66.7075,-15.7798
ReTcPt,74.2302,62.2291,-12.001
Ba2SrPb,13.93,16.9788,3.0489
Ho3Ga3CuPd2,4.9334,8.212,3.2785
PaCdSn2,31.7683,33.9009,2.1326
NiBiC,41.2998,36.4125,-4.8872
SrCdSn3,21.8358,20.4623,-1.3735
Y2TmHf,50.7529,41.8885,-8.8643
AlZn2Mo,13.3274,12.2531,-1.0744
Ni3Pt5Rh2,50.9049,35.9906,-14.9144
Na(CuBi)2,26.1445,27.1805,1.036
NbVB,62.7412,55.7096,-7.0316
U2FeRu,56.0649,51.5792,-4.4857