Formula,E_hull_DFT (eV/atom),E_hull_ML (eV/atom),Delta (ML - DFT)
Cs3ZrCu,36.7789,33.0676,-3.7113
MnIn2Ag,42.7895,35.3493,-7.4402
NaAc2BiO5,14.733,17.6794,2.9464
PPb3C,46.135,41.6929,-4.4421
TmSc3Mn,29.1914,25.8099,-3.3814
Mn2InAg,62.6585,49.2756,-13.3829
Zr6Pd3O2,67.6562,57.8723,-9.7839
U(GaCl3)2,6.6221,9.128,2.5059
Ir(RuW)2,46.1433,41.7187,-4.4246
Ga2SnCl6,2.7073,4.6804,1.9731
TlCuNO2,12.5617,13.4437,0.882
InFeP3,20.959,18.1394,-2.8196
TeI2,27.214,28.023,0.809
SiPt3C,70.3149,47.9324,-22.3825
TmCu2H8Au,12.2607,12.1233,-0.1374
Ca2TcI,31.7917,28.1158,-3.6759
KBi2W,35.8919,39.1981,3.3062
Pu2GaCl6,18.1864,19.1587,0.9722
Li3YZr,23.6808,20.6829,-2.998
Er(Tm3Sc2)2,21.5483,23.1377,1.5894
Rb3CaTc,22.078,17.5956,-4.4824
Y2Zn(Ni4P)3,30.9642,26.1736,-4.7906
LuSiRu,25.2049,22.7703,-2.4346
SbOs5,42.6312,45.7039,3.0727
CaYMo4,22.0726,19.6424,-2.4302
LiZrSb2,41.9381,35.6115,-6.3266
SiPdRu,20.4772,17.5916,-2.8856
Th(ICl3)2,14.1368,16.6298,2.4929
Sm2Er3Mg,23.8438,26.1274,2.2836
SiPbBr2,30.0789,24.5481,-5.5308
Si2PbBr8,18.037,16.1784,-1.8587
Pm2SbSe,34.4461,31.8714,-2.5747
Si2PbBr,31.4944,24.1946,-7.2998
SrZrNi2,35.2488,30.8917,-4.3571
Nb4ZnGe,89.112,74.8386,-14.2734
SiPb2Br,40.5519,35.2236,-5.3283
CsRbBi4,40.5205,41.1779,0.6573
Sr9(CrN4)2,10.5541,10.3646,-0.1896
NaPrTh,28.7958,29.629,0.8331
ThCuP2,17.1996,19.6142,2.4146
Nb(TeAu)2,60.1267,54.9504,-5.1764
BaY4Te,32.9124,29.7885,-3.1239
Pu2InCl6,19.393,19.9021,0.5091
ScAs2,19.4221,17.4031,-2.019
LiZrN2O,32.9762,28.9605,-4.0157
ZrTe2W,55.1447,50.4984,-4.6462
Cs2Rb2Ba,9.6501,9.9068,0.2567
Sr3Cd5Br12,6.3344,5.9768,-0.3576
SrZrNi2,35.5626,30.8917,-4.6708
NaAc2CdO5,11.4044,13.9132,2.5088
ZrTe2W,55.761,50.4984,-5.2625
SrLi3Pb,5.953,9.4349,3.4819
LiInRh2Au,34.5413,28.2942,-6.2472
Zn6Sb,13.4818,12.5367,-0.9452
CaSi2Pb,26.8195,22.6736,-4.1459
LiInP,15.1002,12.294,-2.8062
KSr2Re,26.4756,20.0229,-6.4527
TlRe3Sn,40.9662,42.6788,1.7126
HoThSeN,27.0653,30.4829,3.4176
LiY3,10.7004,12.6215,1.9211
GdTlNiAg,30.5658,29.306,-1.2597
KTeP2,15.438,14.763,-0.6751
VBRu,21.8199,23.752,1.9321
Re2PNO,88.0964,74.5259,-13.5704
LiCeInIr,22.9229,24.2799,1.3571
Be2MoPb,21.7933,20.0187,-1.7745
DyB3C,26.6283,23.3546,-3.2737
Be2MoPb,21.5972,20.0187,-1.5785
KOsW,116.68,90.9749,-25.7051
Zn3GaSn,10.7804,11.5673,0.7869
KOs2W,98.6036,80.4586,-18.145
AcTb2Sb,40.263,40.4489,0.1859
YHf2Ag,83.5261,61.5758,-21.9503
CaScNO2,70.5071,60.8832,-9.6239
ScBeSi3,32.612,24.3816,-8.2304
GaSeI3,25.155,23.704,-1.451
Mg2SiRu,12.3067,10.22,-2.0867
CaSbNO2,34.3574,31.1793,-3.1782
KSi2Os,21.0966,19.4094,-1.6872
Fe4HgW,11.5816,11.5838,0.0022
FeHgW3,28.9255,30.8801,1.9546
Na2BF6,5.2668,5.7297,0.4629
Cd2ReSb,60.6305,47.4122,-13.2182
Pr2AgSn,15.7084,13.3931,-2.3153
Sn2Au2Se,33.182,32.7609,-0.4211
SrCdCo2,14.4095,13.3963,-1.0132
Hg2W,9.6008,13.2922,3.6914
LiInRh,24.6602,19.1458,-5.5144
Y5Cu5P8,19.8487,13.9832,-5.8655
Ac2TbSb,50.2411,50.0451,-0.1959
Y2ReP6,9.8026,7.1314,-2.6712
Sr4MnN4,10.6685,10.4317,-0.2368
Si3PdRu,19.9218,13.9654,-5.9564
SrNdSn6,19.8705,20.9986,1.1281
GdZrGa2,35.6722,33.011,-2.6612
AcTbSb2,44.3795,41.045,-3.3344
LuI4,21.1878,23.6358,2.448
Ba2LiBr,11.8099,11.7926,-0.0174
NaErTi2O6,5.9314,6.6053,0.6739
Sr2PmCl6,9.48,10.0201,0.5401
LiNd(InAg2)2,24.1205,20.5439,-3.5766
CaGdSiHg,16.8216,14.4843,-2.3372
MnRh3C,61.4527,44.0335,-17.4192
LiYC,31.3381,26.9446,-4.3936
Cs2As2Pd2Pt,27.2539,24.9718,-2.2821
CrWI2,19.4162,20.8227,1.4065
Li2InFeIr,28.0539,24.8984,-3.1555
TlTc2,71.9233,66.3047,-5.6185
HfZn6,27.7924,22.0884,-5.704
Sr2NbAl,40.6031,36.2001,-4.403
SiTcNiRh,33.0244,32.8751,-0.1493
Cd2SbTe,31.4727,28.7523,-2.7205
SmMgZn,9.682,12.2865,2.6046
CsLaPbO3,23.8731,23.8531,-0.02
ZrTaAl2,34.9977,34.0238,-0.9739
InFe4W,12.9034,12.9509,0.0475
Ce2PdBr8,13.2986,14.8374,1.5387
Zr2TaAl,58.9224,52.3002,-6.6222
AcTa(PtO4)2,23.2243,20.1998,-3.0245
Dy(BRu)3,8.4227,6.9938,-1.4289
TcC,31.2745,22.5583,-8.7162
Tl8In2Pb,45.448,46.1948,0.7467
NdMg2InH6,7.2389,8.0465,0.8076
In4HIr2,23.7261,25.8359,2.1097
NbSiPb3,64.102,57.4191,-6.6829
SrMgPRh,12.4458,12.0341,-0.4117
Tb4MnH2,24.9167,23.4836,-1.4331
NbCu3Si,37.8198,31.2742,-6.5456
Cd2SbW,31.0625,30.2517,-0.8109
Li2CdSe,16.7227,15.539,-1.1838
InHIr2,27.5376,30.1097,2.5721
Cd(SnBi)2,30.9124,32.1611,1.2487
Nb2Cu2Si,56.3514,47.8066,-8.5448
Pt4W5,60.986,52.4362,-8.5498
Ti6H5Pd2,4.6704,6.2018,1.5314
CdCoAu4,36.7588,37.6462,0.8874
Cd(SnBi)2,34.1482,32.1611,-1.9871
TaCd2Ir,29.8178,33.2997,3.4819
Sr4GeN4,0.0,0.0,0.0
SrCo2Ir,22.3231,20.8519,-1.4712
SrLaCo2,19.6304,17.0632,-2.5672
NdThCuNi,37.3568,36.1202,-1.2366
Er2Hg2Ru,14.4276,17.1898,2.7621
Ca2AcPtO5,36.2032,31.4056,-4.7975
Fe2HgSb,27.4909,21.5492,-5.9416
LiCe(In2Ag)2,21.3193,19.991,-1.3283
NiRuNO2,25.5239,22.1478,-3.3761
Ba2P4Pd5,11.4048,11.4993,0.0945
TlRe2Tc,56.9315,55.6599,-1.2716
TaCd2Os,29.564,32.4792,2.9151
LiHo(InAg2)2,24.5722,20.9949,-3.5773
Na3LiY,18.0876,15.2848,-2.8027
Sc(CrGa)2,14.1857,12.9237,-1.262
Li8Ge,1.3207,2.4199,1.0992
NaPm2In,23.3846,23.6982,0.3136
YAsW2,27.6732,23.7213,-3.9519
TaTlSe,46.0232,43.9097,-2.1135
ScPd,0.0,0.0,0.0
AsPb2W,40.2733,40.9305,0.6572
TaCd2Pt,41.2891,36.6559,-4.6332
AsPb2W,40.2797,40.9305,0.6508
GeRuPb2,33.1773,35.3534,2.176
HfMoAs2,37.6225,31.2482,-6.3743
CsK2Rb,11.6235,11.1221,-0.5013
YAs2Pb,21.5532,23.961,2.4077
Ca2Pm4Sm,19.7635,21.1298,1.3664
GeBiRu2,18.6497,23.1673,4.5176
Ge3BiRu,21.5383,22.1058,0.5675
Ca2BeNi2,11.8341,6.4198,-5.4143
BeRh2Au,36.3083,30.5932,-5.7152
Fe2CuSi,25.106,19.1189,-5.987
Ge2Ru2Pb,20.698,22.9933,2.2952
Li2YP,18.0245,13.7833,-4.2411
TaTl2Se,47.5884,46.0302,-1.5583
Sr3(ZnIn)2,13.2973,14.4998,1.2025
La2Ce2Ru,27.4921,24.6309,-2.8612
Ba3Nb(AgO4)2,13.4802,11.8677,-1.6125
TiCo2HgMo,20.9326,18.7156,-2.217
Sr2Sn3Hg5,6.4699,7.843,1.3732
Ba4ZnIn,4.3564,5.8286,1.4722
SrCo2Pt,28.6889,24.0656,-4.6233
Ba4TmNb3O12,20.4815,18.8067,-1.6747
Sr3(TlZn)2,22.1447,23.4172,1.2726
Ba4Nb3CdO12,20.4575,17.8791,-2.5784
TaTlCd2,32.3711,33.6455,1.2744
ZnInAu4,33.0093,34.6775,1.6682
ScFeIr2,43.6336,44.4845,0.8509
Y2ZrP,45.9977,37.5737,-8.424
TaCd2W,29.1868,31.9865,2.7997
TiPdRh2,29.6487,24.2925,-5.3562
Pr3Fe5F12,0.0,0.0,0.0
KCu2Rh,19.3805,16.2751,-3.1054
PrInIr,6.7403,14.5043,7.764
Tb3(TmZn)2,22.2297,24.7938,2.5641
Zr2MoRu,58.3846,51.0802,-7.3044
Pa2Zn2Tc3,61.0496,55.2909,-5.7586
CaThCuS3,35.3447,29.5634,-5.7812
Sr2In3AgPd4,18.3519,18.9186,0.5667
La4CeZn,39.8043,29.8946,-9.9097
TmHfSn,58.1901,48.9521,-9.238
ScBePb2,30.4959,30.3451,-0.1509
ZrSn,39.6643,36.2786,-3.3857
Ba2NbIrO6,17.0144,15.9979,-1.0166
ScBePb2,30.3962,30.3451,-0.0511
InNiRu,8.4531,13.3985,4.9454
LaTlSbI2,38.0928,32.776,-5.3168
Tb2(NdDy2)3,26.6488,28.7612,2.1124
Ba3NbAl2O8,13.6621,10.9876,-2.6745
PmTiSb2,29.4401,26.6191,-2.821
Ba2YHf2ScCu2O11,33.6588,26.8151,-6.8437
V2Co5B2Pd,24.1754,21.2965,-2.8789
Li2ReSe,22.3671,21.2672,-1.0999
NaAs2W,22.4223,22.1479,-0.2744
Ba2NbOsO6,16.6687,15.9667,-0.7019
SrCo2Sb,18.8267,17.0989,-1.7278
Hf2PdRu,79.6505,61.075,-18.5755
HfPa2Pd,74.1284,67.29,-6.8384
CdCuSnCl2,29.0374,25.1564,-3.881
Mo2OsPb,38.6025,35.5811,-3.0214
Ba4Nb3ZnO12,22.4457,18.9623,-3.4834
SmCuSnAu,47.0521,44.4108,-2.6412
Fe2SiOs,24.3284,19.9412,-4.3873
Na2CdCuP2,13.2093,11.8417,-1.3675
FeSiBr,10.5706,8.574,-1.9966
Ca3RuI,15.849,13.6022,-2.2468
Nd3(Tm3Th)2,35.6635,37.7441,2.0807
Ce2PuSb,41.2993,41.101,-0.1983
HfZr2P,85.9378,68.3602,-17.5775
TaHgOs2,30.2411,34.764,4.5229
Fe2ReSi,25.7759,20.8348,-4.9411
SrYCo2,29.3624,25.2007,-4.1618
Ce2YAg,23.9543,24.3636,0.4093
AcCuPtO6,17.3614,16.0709,-1.2905
Li3Y,3.9306,5.4714,1.5408
TiBiSe2,32.7459,31.9434,-0.8025
Tb2Nd2Y2In,22.2807,23.7205,1.4398
Na2Nb2C,73.0822,58.1709,-14.9113
SrLa3Ir,29.509,21.4551,-8.0539
LiCaNd2,13.9099,16.0237,2.1139
Y6GaAs2,11.8958,13.9823,2.0865
YAgB3,48.8158,39.2578,-9.5579
RbGe,9.492,1.2571,-8.235
YAgGe,15.3548,13.623,-1.7317
BeTe2Mo,23.6526,22.0231,-1.6295
Ta4Al2H3C2,24.8102,23.9753,-0.8348
Cd2TePt,42.5333,35.7298,-6.8035
TaBeSeN2,36.3137,31.4537,-4.8601
AlGaTe2,20.503,20.5006,-0.0025
LiY2Zr,31.8013,28.9707,-2.8306
AcGeSbPt,51.6129,44.23,-7.3829
Rb2ZnTe,11.27,11.8623,0.5923
RbHfTc2,77.8097,59.552,-18.2577
LiY2Zr,31.8065,28.9707,-2.8358
SiSb2TePb,40.2532,34.123,-6.1302
TaCo2Os,43.8569,37.5712,-6.2857
Cs(AlGa)2,9.441,10.6395,1.1984
CsAl3Ga,10.0478,10.4052,0.3574
Ba3In5S12,25.3469,17.605,-7.7419
Cs2AlTe,23.3142,23.2304,-0.0838
CsAlTe,19.5413,20.3713,0.8301
HfVNO2,54.1848,40.5196,-13.6651
LiYZr2,52.964,45.421,-7.543
Tb2ThRu2,29.9349,33.2062,3.2713
AlGaTe3,23.7476,23.9506,0.2031
PuHfZn4,40.8735,35.0562,-5.8172
Sr(Tl2Cd)6,39.4322,39.3667,-0.0655
Rb2HfTc,57.0324,43.4372,-13.5952
Be2TeMo,19.0268,16.3313,-2.6954
Li2SiAs,16.6032,13.6613,-2.9419
Li2SiAs,16.4974,13.6613,-2.8361
Ca2LaTaTi,21.5002,19.4978,-2.0024
As3AuF,18.222,18.4871,0.2651
Sb2TePbC,51.1897,41.8989,-9.2908
BeTe2Mo,29.1809,22.0231,-7.1578
NaCaFeC,33.0163,26.0103,-7.006
LiYZr2,52.9552,45.421,-7.5342
Ca(PdN)2,18.0447,15.266,-2.7787
Tl2AgS2,45.8571,38.2522,-7.6049
Fe2RuW,24.7247,22.4698,-2.2549
KTh(CuP)2,21.8112,20.941,-0.8703
Cu2NiAs,17.0327,14.6731,-2.3595
ThIn4Au,28.0507,30.3608,2.3102
Rb2NaSe,16.815,14.1591,-2.6559
MgCd2Ni,13.7182,13.6487,-0.0695
Mn2SnCl6,26.2148,21.0491,-5.1658
LiYZr2,53.0242,45.421,-7.6031
Ac2La(RuI)2,43.8819,37.956,-5.926
Tb3Dy3Th8,49.4769,51.3057,1.8288
Tb3Dy8Th3,35.6549,37.4409,1.786
LiYZr2,52.9101,45.421,-7.489
K2SbOs,28.4872,26.1153,-2.3719
TmInBr2,17.7231,19.4803,1.7572
AcGa4NiPt2,34.7851,29.2221,-5.5629
HOsPt4,66.7698,51.7272,-15.0426
Gd2CuTe,26.1608,27.6781,1.5172
InSnBi2,37.5165,36.5766,-0.9399
Y3ZrC,49.3819,40.314,-9.0679
Nd6CoHg,19.2092,21.0545,1.8453
CeNi,2.581,7.6728,5.0918
Nd8Ag2Sb,27.4755,26.6126,-0.863
TlCd2W,32.6494,34.2019,1.5526
NaCa2Sn,11.5885,12.4634,0.8749
Ac3Pt2Br,58.0655,50.5825,-7.483
HfZn4Au,36.7156,30.4643,-6.2514
TaCo2Re,43.4834,37.0085,-6.4748
Cs2CaPt,33.2361,28.0266,-5.2095
Nd5ScSb6,32.5996,28.728,-3.8715
AcThGa2Pt5,65.2439,50.7854,-14.4586
LiRu2Au,20.2388,22.6594,2.4206
LiCaFe,13.1718,11.8093,-1.3625
PmSm2Sb,29.3899,28.8093,-0.5805
Li(YP)2,21.813,15.5002,-6.3129
Ac2CuPt3,60.5091,49.0914,-11.4177
ZrSn2Au,46.4431,43.3529,-3.0902
YInAsBr2,14.0933,14.0462,-0.0471
Ac2Pr2Rh,28.3153,28.3538,0.0385
TaAl2I,19.5933,18.979,-0.6143
LaNdZn4,17.4677,16.1681,-1.2996
LiYC,31.6381,26.9446,-4.6936
Ba4NpNb3O12,22.5688,20.9045,-1.6642
Y3AgPd5,23.3055,19.7229,-3.5826
TaCo2W,43.9115,37.2158,-6.6957
Li2RuAu,16.2097,17.9704,1.7606
Dy2(FeB2)3,4.8651,7.0365,2.1714
Y3Cu4,31.8137,25.365,-6.4486
CdRu2Pb,26.4711,30.1648,3.6936
TaNb2Se,83.9174,72.5296,-11.3878
TiCrN2O,12.8164,12.2249,-0.5915
CaMgP2,17.2052,14.7181,-2.4871
CaMg2Tl,15.1649,16.6491,1.4842
CdRu2Pb,26.6568,30.1648,3.508
La4ZnPd,33.6516,23.8144,-9.8372
NpTlSe,49.5539,49.0476,-0.5063
Fe2SiW,16.8536,16.8003,-0.0533
ScFeW2,41.6611,43.2029,1.5417
SmY(BiO3)2,21.0298,21.8007,0.7709
TaSiSe2,36.9522,31.899,-5.0531
TiPdN2O,16.3223,14.9525,-1.3698
LiY3O,22.8082,21.2356,-1.5726
PmTmZn4,13.9729,15.8722,1.8993
TlNiPt2,54.4725,43.3671,-11.1054
Ba4Nb3InO12,21.6532,18.9768,-2.6764
Ni2RhCl6,9.1957,8.6427,-0.553
Er6PSe3S2,34.9535,32.5631,-2.3903
Pd2PtCl6,12.8579,11.6367,-1.2212
Sm2Sc3Rh2,22.7752,20.4344,-2.3408
Cd2AgSb,28.7367,24.6449,-4.0918
TaSiSe2,36.8829,31.899,-4.9839
Tb4AuC,29.8755,29.9419,0.0664
KGa2Rh,15.2682,12.7681,-2.5001
LiYO,28.8581,25.9472,-2.9108
Li2CrSi,11.6951,9.9784,-1.7168
CeLu2Ga,24.9096,27.0369,2.1273
CaAc2(PtI)2,50.2995,42.967,-7.3325
NdPuZn4,21.0531,22.7293,1.6763
NiW2Cl,24.8606,25.7873,0.9267
ScNbV2Rh,91.9033,72.0991,-19.8043
CeDyIr2,34.0823,37.5207,3.4385
PrZn4Ir,14.1718,13.4344,-0.7374
Ac2LaPt3,73.7177,57.6901,-16.0276
KZnRu2,14.3246,15.6681,1.3435
Co2TcAu,39.3055,36.5617,-2.7438
ZrFe2Si,30.197,24.6486,-5.5485
RuPb3C,50.0822,47.0616,-3.0205
Ir2RhW2,42.3787,44.4556,2.0768
Tb2Tl2Rh,40.3517,39.6024,-0.7493
LuScTcRh,82.2094,68.6144,-13.595
LiTe2C,37.5056,31.7161,-5.7895
La2TbErTl2,38.9544,35.4539,-3.5004
Tm2RhPb2,42.6326,42.1167,-0.516
TlRuPb2,43.6186,45.6227,2.004
BaCaSN2,12.8061,10.763,-2.0431
TlRu3C,34.0676,32.9659,-1.1016
Tb2YEr2,20.338,24.3046,3.9666
ScPaFeRh,51.0478,47.023,-4.0248
Tl2Re,42.6018,47.914,5.3122
TlRu2Pb,29.727,34.0814,4.3543
AcNi2Pt3,56.9142,44.5461,-12.3681
ScMo2Pt,40.2705,35.8282,-4.4423
CdGaBi3,38.8089,39.3536,0.5446
Rb2CuW2,22.579,17.4769,-5.1021
CdGaBi2,34.3403,35.3996,1.0593
Si2RhF,24.41,18.799,-5.611
Mn2RuRh,77.1092,58.493,-18.6162
MnRuRh2,64.5539,50.3147,-14.2392
BeCdS2N,46.3203,35.7398,-10.5805
NaCo3B,3.8112,5.5604,1.7491
Nd2ThRh2,35.0232,34.9444,-0.0788
LiCdS2N,27.6284,21.5148,-6.1136
Cd3Os,25.2962,26.9495,1.6533
Zn4PtRh,27.8043,21.9173,-5.887
Y2ZnInRu,20.2182,16.6544,-3.5638
NaLiIn,16.4581,14.0547,-2.4033
Ba4AgI2Br,10.0109,9.7319,-0.279
Sr(ZrPd)2,42.7064,39.2604,-3.446
Ga3SnIr,19.1887,20.0642,0.8754
Zn4AgRh,18.3242,15.3218,-3.0024
Y2Pu2Ni15,29.1593,27.7339,-1.4254
MnCrAu4,49.8839,46.6436,-3.2403
LaZn4Rh,21.5657,17.5529,-4.0128
ScMn2Fe,72.1132,58.54,-13.5732
Y2Ho2Pb5,38.1961,39.9017,1.7056
TaMoAs2Se,36.6701,35.0465,-1.6236
Pt2Rh2W,62.9018,47.969,-14.9328
Zn4RuAu,15.6093,17.1655,1.5562
Sm(TmRh)2,36.1815,31.9656,-4.2159
Ac3Pt2Pb,70.2444,62.6978,-7.5466
AcLaPtPb,63.9,54.4087,-9.4913
CsCo3Cl,11.6904,12.3714,0.681
BaPRu,10.5932,11.1729,0.5797
NaSc3Cu,23.1363,18.6914,-4.4449
HoErSn2,24.1963,26.2912,2.0949
Na12Tl5Pb2,34.368,31.1921,-3.1759
NdY6Tm2Sc3,19.0749,17.3162,-1.7588
Y3GeS6,32.0615,24.0838,-7.9776
Rb2ThCl6,4.0763,6.8886,2.8123
ScBeI2,19.6604,20.9563,1.2959
LaCo2Tc,39.2072,32.9276,-6.2796
KRb2P,9.2174,6.5715,-2.6459
Sb2TePPb,38.9485,34.1264,-4.8221
RbRuRh,48.2772,39.0545,-9.2227
Ac2GdEr,46.9793,48.9034,1.9241
ZnPRu,0.0,0.0,0.0
TeAs2W,27.801,26.7567,-1.0443
LaTcSN2,40.0041,30.9089,-9.0952
OsRhBr2,29.7826,26.6098,-3.1728
TeAsW2,33.6999,35.6134,1.9135
ZrMo3I,35.154,33.4691,-1.6849
NaY2TcAg,63.6873,51.8887,-11.7986
Te2AsW,34.8769,34.0665,-0.8104
BaPRu2,12.6358,14.3275,1.6917
BaP3Ru,11.0349,9.8784,-1.1565
OsRh2Br,38.9093,32.7018,-6.2074
AgSbAs2,24.206,21.1745,-3.0315
Rb3ZrMo,25.8737,21.4772,-4.3965
Er2CdP,19.4998,22.6556,3.1558
GaGeRu3,15.0366,16.5077,1.4711
RbP,0.0,1.0149,1.0149
BeZn2Pb,23.1077,19.749,-3.3587
Li2Tl,17.2023,18.2953,1.093
SrLa2ScRh,33.948,24.5869,-9.3611
NaCuRhS2,33.832,25.1068,-8.7252
KIrBr2,16.1281,17.8533,1.7252
CuReRh2,36.2446,31.0013,-5.2433
Rb2PPdI,15.5109,12.8375,-2.6734
CuRe2Rh,34.0864,33.967,-0.1194
PmEr3Ru4,17.8947,20.9806,3.086
TlBiRu2,30.1312,34.434,4.3028
RbTb2Cl6,6.8981,7.4283,0.5302
Na3HoBr6,11.9591,12.7504,0.7913
CuRePb2,38.9159,40.9557,2.0398
ReRh2Pb,48.2224,42.9847,-5.2378
LaLu2Sc,31.0402,29.0273,-2.0129
LaYZn2As,20.1779,15.9849,-4.193
LaYZnRu,26.6244,20.8184,-5.806
SrAc5Te8,46.4655,46.169,-0.2965
Na2Pb(IBr)2,27.5667,24.529,-3.0378
VSbPb2,70.2372,61.3022,-8.935
TbHfZn4,33.2081,27.5676,-5.6405
Li2SiP,15.3599,10.996,-4.3639
AlSb2Pd,28.2409,24.1649,-4.076
Co2TcRu,30.4064,29.2108,-1.1956
CaSbTe2,34.451,29.9032,-4.5478
MnTc,86.588,71.4347,-15.1533
PPtBr2,30.4234,23.0182,-7.4052
Ac(PrRh)2,23.8326,23.5929,-0.2397
PPtBr2,31.2219,23.0182,-8.2036
Cr4TeBr,24.9114,21.9873,-2.9242
KPBr,9.1441,9.8115,0.6675
MnCdCu2,33.2154,28.2218,-4.9936
U2SeCl6,22.0407,22.6728,0.6321
Al2Si2Tc,35.9236,28.4958,-7.4278
YHo2TmP4,19.7473,19.3989,-0.3484
SmEuAu,33.1101,35.187,2.0769
Cr2TeBr,31.8267,28.2211,-3.6056
YHoZn4,13.0682,13.6643,0.5961
CrTeBr2,32.0162,28.8631,-3.1531
AgGe3N,13.2802,11.6267,-1.6535
ScCdAg4,25.1367,20.3769,-4.7598
SrLa3Os,25.1878,29.9515,4.7637
ReRhW2,33.1782,36.4714,3.2932
SrB2F6,0.2404,2.208,1.9676
ScIn2Fe,32.243,30.6982,-1.5448
GeRu3Br,19.3311,18.6092,-0.7218
MnNiRuRh,79.3064,64.9062,-14.4001
PtCI2,47.3519,36.1428,-11.2091
LiYP,23.4437,17.925,-5.5187
YP3,20.0232,15.5667,-4.4565
Mn2BSb,55.0908,42.5184,-12.5724
Zr2Cd3Hg2,36.2297,32.0369,-4.1928
Ac3Si2Pt,34.5092,32.8796,-1.6295
K2PtI5,24.9898,22.7836,-2.2062
Ac3TePt2,61.9627,55.734,-6.2287
SbOsPd2,32.0631,31.1531,-0.91
AcNdInPt,49.0448,44.657,-4.3878
SrWN3,0.0,14.356,14.356
Re2RhW2,41.9825,43.1388,1.1564
RbP3Ru,24.5847,21.2957,-3.289
ReRhW2,41.5818,36.4714,-5.1104
Rb3LiRu,25.6385,20.5894,-5.0491
YZr2P,66.7658,55.4537,-11.3121
YZr2P,67.1347,55.4537,-11.6809
BeBSb,10.9974,10.8815,-0.1159
BeNi2Bi,16.9945,19.478,2.4835
YZrP2,43.6238,34.9926,-8.6313
CeZrZn4,25.3825,23.8544,-1.5282
NaGdF4,-0.0,1.1481,1.1481
Tb2Y(ZnGa)2,14.9007,16.2555,1.3548
MnPb2Au,63.2275,58.0573,-5.1701
Ca2NbRu2,30.4653,28.794,-1.6713
SmTmTiAl,16.943,19.143,2.2
SrSIN2,21.5758,17.7782,-3.7976
Mn3PbAu,80.3564,66.0057,-14.3507
ZrZn4Au,29.0882,27.3696,-1.7187
CeEuHgPb,25.9137,27.8535,1.9397
CdSbW2,35.6443,36.8603,1.2161
Tl2TcCl6,23.5662,23.3868,-0.1794
CaW2Se,54.1996,49.7225,-4.4771
Y2ZrP,45.7217,37.5737,-8.148
BeNi3C,17.2809,15.3807,-1.9002
CaW2Se,54.2892,49.7225,-4.5667
NaBeC,24.22,20.5669,-3.6531
TaSb2OsN,51.3593,42.392,-8.9673
La2TbNd,38.6633,31.2652,-7.3982
HfZrZn4,45.1761,36.4612,-8.7149
GaNi5As,12.2101,11.917,-0.2932
NaBeC,24.4491,20.5669,-3.8822
SrAgSb,18.5705,16.0992,-2.4713
Sr3Te12As5,21.3502,18.4588,-2.8914
BeGeC,23.9697,20.6994,-3.2702
VB3Sb,37.4965,29.9461,-7.5503
BeGe3C,19.193,16.4703,-2.7227
YPC,21.3707,27.6894,6.3187
Cs(KBi)4,29.563,29.742,0.179
LiYP2,23.8916,17.227,-6.6645
Tl2CdIr,41.4493,42.8417,1.3925
As2C,28.1873,21.9733,-6.214
Na2LiSn2,15.3255,14.9396,-0.3859
Co2TcRu,30.411,29.2108,-1.2002
Co2RePb,22.8467,24.7067,1.86
Tl2CdIr,41.2651,42.8417,1.5766
Co2TcRu,30.4179,29.2108,-1.2071
NaCoSn3,18.6439,18.5704,-0.0735
ZrRe3,54.6067,54.8733,0.2666
NbAlN3,29.768,26.4872,-3.2808
CoRe2Pb,29.8972,33.163,3.2657
Ag3Mo(IBr3)2,18.3889,17.1642,-1.2248
NbWN3,25.9577,24.5881,-1.3697
HoZrZn4,25.8723,24.4077,-1.4646
ScIrPdRh,36.9339,29.9157,-7.0182
ZnCo2Ru,16.0653,13.2292,-2.8361
Ge2IrPb,23.6314,27.3162,3.6848
ZrOs3Pt,65.2985,57.149,-8.1495
Y2SnPd2,37.7103,31.7532,-5.9571
YSb2Pd7Pb2,31.1375,28.8349,-2.3027
ReRhAu,46.2947,43.4825,-2.8122
Pm2Y(SnPd2)3,34.6438,31.457,-3.1868
Nb4Te17I4,50.331,45.0298,-5.3012
TiBeSN2,31.2194,24.6648,-6.5545
Cs2BeMoBr6,13.6899,13.2044,-0.4854
Pr3Y5Er,4.7753,6.5882,1.8129
TiVS2N,49.4476,37.6271,-11.8205
Y3Ho2H9,6.8034,7.4607,0.6573
GdScAgRh,28.1767,24.8644,-3.3122
KAlAs,25.1185,18.9653,-6.1532
ZrNi2Te,37.9765,34.8451,-3.1314
AgMoBr6,14.1187,14.6491,0.5304
ZrAlPb,51.3134,47.5097,-3.8037
CoRePb,28.6951,32.8911,4.196
LiTcP3,26.1401,20.6253,-5.5148
ZnCo2Ru,16.0886,13.2292,-2.8594
Y2PaGe3Pt4,49.0862,37.6214,-11.4648
Sr(Ga3Ge)2,9.1635,10.0247,0.8611
InSiPt2,53.2033,38.8647,-14.3385
Zn2HgIr,18.7462,16.8696,-1.8767
AcYSn6,30.2775,28.5323,-1.7452
Y2Ho2Mg5,11.6649,12.9402,1.2753
Pr2Y5Th,10.3739,13.054,2.6802
Y3Ta17O47,12.3266,11.8214,-0.5052
NbTePdRuI,53.1733,46.1281,-7.0452
TlOs2Cl,35.4587,38.0194,2.5607
InSi3Ru,19.0734,13.5248,-5.5486
TlOs2Cl,35.7192,38.0194,2.3002
MoSBr,21.2856,17.2434,-4.0422
CsMn2MoBr,50.6874,41.4763,-9.2111
BiSbC2,51.4832,40.658,-10.8252
RbNbV2O8,9.4313,6.6931,-2.7382
Ni(PO3)3,0.0,0.0,0.0
RbV2SbO8,9.5662,7.0635,-2.5026
InSiSb,26.8433,22.3281,-4.5152
RbTaV2O8,3.7504,2.0262,-1.7242
K2LiAu2,21.5532,21.8785,0.3252
Li2TePb,23.5685,23.748,0.1794
Ac2LaNdPt4,69.2947,54.3082,-14.9865
CsV2SbO8,11.4215,9.9481,-1.4734
Cr4GaCuS8,35.8425,26.7961,-9.0465
LiTaAg,23.2127,22.8193,-0.3934
Tm2Zr2In3,45.1325,41.6753,-3.4572
Mn3SiBr,66.1179,49.6808,-16.4371
Ge3IrPb,26.5941,27.339,0.7449
KTcPd,35.7947,33.2664,-2.5283
Zr2Cd2Rh3,54.0288,43.7627,-10.2661
PuZrZn4,33.2667,31.7291,-1.5376
Sr2Tl2Sn,27.0771,29.026,1.9489
Sn3RuRh,34.8822,29.6465,-5.2357
ZrZn4Rh,25.984,22.5823,-3.4018
Cs2BiMoBr6,17.9096,18.3975,0.488
NbTePdRuI,53.1751,46.1281,-7.0469
YHoCrSbO7,14.6525,13.6302,-1.0222
K2ZrSc,32.7679,28.0408,-4.7272
TmZrZn4,26.2602,24.796,-1.4643
Ac2NdIrPt,50.4562,48.493,-1.9631
KNi2As,18.8531,15.7318,-3.1213
MoPdRh3,40.9249,29.1748,-11.75
Ta2SbAu,41.9018,42.5174,0.6156
CaTcIr,49.6539,40.4312,-9.2227
Ba(VCl3)2,29.9125,23.9077,-6.0047
CaPr2Nb,36.4438,30.7379,-5.7059
NbTeAuI,58.8219,53.9918,-4.8301
LiLaBe3,14.2413,9.0448,-5.1965
CrNiPb2Au,42.9584,41.5153,-1.4431
ThGa4Cu2Ir,20.901,21.3447,0.4437
NbTeAuI,63.4616,53.9918,-9.4699
CaThCuSi,27.9881,26.5647,-1.4234
LiLa2Be,27.0175,18.6197,-8.3978
SbPdBr2,29.2409,27.8724,-1.3685
La2TaCd,40.0758,33.0327,-7.0431
Y3(HoEr2)4,26.3893,28.115,1.7257
YBiP2S,41.9053,37.1346,-4.7707
NaSr(ZnGe)2,11.8705,12.129,0.2585
Ca2Ga4HgPd3,13.2795,12.4547,-0.8248
Tm2Zr2Tl3,58.5846,54.942,-3.6426
Nb3WN,92.5438,79.0475,-13.4963
Ho4ZnAg,25.1708,26.2702,1.0994
YP2SBr,33.3788,28.6438,-4.735