Formula,E_hull_DFT (eV/atom),E_hull_ML (eV/atom),Delta (ML - DFT)
YMo2F11,5.9873,3.566,-2.4212
Th2ScAl6,17.5419,19.3112,1.7693
TlInAs2,22.9495,23.9717,1.0222
Tc2Ru3Pt2,59.0361,48.7795,-10.2566
Li2TcPb,36.9489,34.8209,-2.128
PaInRu,26.448,31.2736,4.8255
TlInAs2,22.9194,23.9717,1.0523
Sm3(SeS)2,38.7555,33.0208,-5.7347
Ni2AgSbP,26.2166,20.8933,-5.3233
Y2MgHg,25.8322,20.5538,-5.2784
Na2PaPbO5,17.328,17.4563,0.1283
LiAl2O,12.7074,14.5104,1.8031
Cs(KHg)2,8.539,8.3364,-0.2026
TcTe4Rh,46.061,41.2126,-4.8484
Sm2AuO2,17.9632,19.6297,1.6665
TaCrIn,56.0435,43.4604,-12.5831
Re2NiOsRh,52.8281,41.9683,-10.8597
AcH2Pt,37.8322,33.3483,-4.4839
Zr(TlCu)2,38.7618,36.3266,-2.4352
Pr3(TeS)2,24.5662,20.6356,-3.9306
Sm5PS4,33.961,30.6266,-3.3343
Ca2InOs,18.179,20.0469,1.8678
Tb3(TeS)2,38.0134,34.0769,-3.9364
CaInOs2,27.759,27.9986,0.2396
Ce2NdAl6,10.2209,12.2558,2.0349
Hf2TlCrAu,79.6445,62.7729,-16.8716
SrTePd2,17.7244,20.0273,2.3029
Ca2InOs,18.0877,20.0469,1.9591
ScCd2Tc,71.7535,62.6428,-9.1107
Ce(PmAl3)2,9.8095,12.2272,2.4177
Tb(CeAl3)2,10.0441,12.4619,2.4178
NaSmSn,23.1323,23.4516,0.3193
Tm2SnO2,52.0035,44.2988,-7.7048
PrMnPt4,74.7959,52.6312,-22.1648
LaSbOs,46.4265,39.0791,-7.3475
TiPb3F,34.2397,34.8954,0.6557
ZnInPbO4,18.0338,17.3645,-0.6693
Ba2Au2S3,36.7353,30.6514,-6.0838
LaOs2Rh,46.4744,41.1563,-5.3181
CuSn2P,31.4916,29.4419,-2.0497
Pr6Sn2Ir,0.2024,3.1829,2.9805
ZnGeOsO2,23.8972,20.7742,-3.123
AlClF2,19.3829,15.9562,-3.4267
ScCd2Tc,71.7693,62.6428,-9.1265
ZnOs2O,38.4347,36.3387,-2.096
CuSn2P3,24.8395,23.2816,-1.5578
TlTc2Te,70.5223,63.4876,-7.0347
Ga(SiAg)2,20.4527,15.7268,-4.7259
NaTmGaSn,20.8222,21.6019,0.7797
AgBiPtRh,56.19,44.9069,-11.2831
K(BaGe)2,2.8295,4.7215,1.8921
GaSiAg,14.7862,12.1585,-2.6277
HfScS2N,50.4533,40.2192,-10.2342
ZnMoOs,27.1133,26.4219,-0.6914
Y3NiHg3Pd2,39.7511,33.5746,-6.1765
TlIn2As,25.2472,26.5896,1.3424
LiCl,5.1489,5.0792,-0.0697
Y2Mg2Hg,21.0821,17.3246,-3.7575
Ba(YHg)2,28.9541,23.9073,-5.0468
NaSn2Mo,32.4432,25.8547,-6.5885
CaZn3,8.3492,7.8537,-0.4955
Tl2InAs,33.0105,34.3603,1.3497
Na2Sn4Pt5,52.2859,37.9143,-14.3715
Na2PuPtO5,16.039,14.4097,-1.6293
YMgHg6,6.6279,5.3309,-1.297
NaSmTmSn,25.0021,26.0042,1.0021
Tc2TeW,67.1077,61.7035,-5.4042
PuSbAs2,33.9209,32.8119,-1.109
Na3HfSn,49.0365,37.2393,-11.7973
Tl2In2S3,44.2303,38.1117,-6.1186
NaTmSn2,23.8035,24.3717,0.5682
ScSe2I,30.9043,27.2083,-3.696
NaSn4Bi,27.0646,26.921,-0.1436
Y3MgHg4,18.8589,14.9522,-3.9068
NaSnBr3,15.116,14.6274,-0.4886
Na2SnBr,20.1224,18.4603,-1.6621
Na2SnMo,34.4387,27.3124,-7.1262
LaZrBr2,42.5619,33.0092,-9.5527
LaZr2Br,64.9067,52.518,-12.3887
Gd2SiI,23.2023,23.6456,0.4433
Cs2KNpOF5,14.819,15.0178,0.1988
PRuSe,16.1331,17.1932,1.06
LaZr2Br,65.0388,52.518,-12.5207
LaZrBr,54.4873,41.3718,-13.1155
NaNbSn3,46.9868,40.8628,-6.124
Nb(GaI)2,37.9944,32.8121,-5.1823
YGa2Ru2C,27.7642,23.076,-4.6882
NaTa2Sn,30.5441,32.6561,2.112
Ca2NdYHg4,7.4269,7.5316,0.1047
Na2SnBr2,15.247,13.9011,-1.3459
CdNi2,3.7377,5.961,2.2234
Na3SnTe,27.4568,24.0666,-3.3901
LaZrPb,67.4493,57.2489,-10.2004
La2ZrBr,52.9797,39.4486,-13.5312
AlC,13.2079,10.012,-3.1959
Tl3SbRu,44.0222,42.2731,-1.7491
NaCd2GePt,32.2269,25.8226,-6.4042
Na3(SnAs2)2,17.032,16.3876,-0.6444
LaZrPb2,63.6168,54.9899,-8.6269
Cr2SiAg,16.4631,13.7967,-2.6664
La2ZrPb,63.4359,49.9306,-13.5053
LaZrBr,53.7407,41.3718,-12.3689
ZrMoF3,27.7768,22.1825,-5.5943
Li2Al,2.5245,4.2052,1.6808
CeYHgOs,28.9718,28.2862,-0.6855
LaZrPb2,63.4742,54.9899,-8.4843
NdLuRu,24.5591,28.3481,3.789
NaAgSe2Br,32.7069,26.4637,-6.2432
NaSn2Pb,26.2065,27.3563,1.1498
IrOsI2,34.3981,36.0724,1.6742
Na2CuSn,41.9842,35.3385,-6.6457
Y4HgTe5,32.8441,29.8044,-3.0397
NaTl2InI,33.8091,33.1804,-0.6287
InRu5I2,25.2062,23.7609,-1.4453
ZrReTc2,80.8503,70.7861,-10.0642
LaZrPb2,63.5871,54.9899,-8.5972
KSb3Rh,39.1793,29.569,-9.6103
DyFeB,9.1352,12.7311,3.596
Li2TaMo,13.5999,16.3288,2.7289
LaZrBr2,42.63,33.0092,-9.6208
Na5(CdSn)3,22.0934,20.211,-1.8824
SrPmSm2,22.3038,24.997,2.6932
Li2Cl,3.2886,4.8839,1.5952
LaCo2Ir,27.0365,24.9087,-2.1278
Pr3URu4,35.4674,34.1693,-1.2981
NaSn3C,31.4108,26.6444,-4.7664
ZrReNi6,10.3241,6.6396,-3.6845
AcTiSb2,39.5141,36.267,-3.2471
TlNi6Rh,1.0223,3.6867,2.6644
Ni6AgRh,0.0,0.0,0.0
ZrNi6Mo,6.6968,5.9643,-0.7325
TaSiSe,33.5811,31.0911,-2.49
TlInNi6,0.0,3.1441,3.1441
Ni6HgMo,0.0,0.0,0.0
SrYNi6,12.8812,11.3791,-1.5021
KN2F11,4.7203,2.6311,-2.0893
Na2SnBi2,32.6726,32.1872,-0.4854
MoRh2Pb,41.57,36.4202,-5.1498
NaU2Br11,15.1521,15.5707,0.4186
Cr2SiAg,16.4425,13.7967,-2.6458
Cr2SiAg,16.648,13.7967,-2.8513
OsRuCl3,15.3947,15.9541,0.5594
Na3SnN,26.5908,21.4196,-5.1713
Tc3RuC,75.7877,61.3738,-14.4139
Sc3PaP4,43.5709,36.6714,-6.8994
HfNb2Hg,106.7286,83.9926,-22.736
Zr2BeSbMo,54.7952,42.4611,-12.3342
SrSbRh2,38.5768,30.0644,-8.5125
CeSnPd3,16.2854,17.0528,0.7673
Dy2ThAl6,14.9576,17.557,2.5994
Cr2SiAs,21.1117,18.4129,-2.6988
Ge2(PbAu2)3,41.8147,42.9146,1.0999
NaSnRu2,19.8417,21.153,1.3113
Nd2Sm7Y3,22.2591,24.373,2.1139
U4TcRu,63.7998,65.1588,1.3591
RbCrGa2,0.0,0.593,0.593
Cr2SiAu,20.4788,19.8848,-0.5939
Te8WAu2,42.856,41.3081,-1.5478
Sr2Cd3AgSn4,21.5739,19.8372,-1.7366
Cr2SiAu,20.3362,19.8848,-0.4514
Ac2Al4InHg3,15.7635,17.0798,1.3163
TeWAu2,44.3564,45.5601,1.2037
ScCl3,14.3325,16.3401,2.0076
NaHfSn2,48.3091,39.1354,-9.1738
TeWAu2,44.3208,45.5601,1.2393
SiIrN,0.772,1.4159,0.6439
CsNaSnSb2,28.4448,24.7505,-3.6942
NaSn2SbIr,31.5625,29.2159,-2.3466
NaTiSn2Sb,31.2802,25.1131,-6.1671
PmNdSb2,33.9243,31.666,-2.2583
EuScTl,27.8952,29.8401,1.9448
Al2OsSe,24.0587,23.3833,-0.6754
Pb2Br2O,32.5017,28.0667,-4.435
LiPm(MgPd2)2,12.0241,14.3058,2.2817
Sm4TcAu,33.9995,36.044,2.0445
Sm6Hg3N,11.3097,12.9693,1.6596
NaYHgAu2,34.2452,31.2353,-3.0098
DyPa3(MnN3)4,31.2588,29.1394,-2.1193
I2(OF2)3,10.1097,7.9268,-2.1829
Cr2SiAu,20.54,19.8848,-0.6551
Be2NiBr,1.7761,4.2848,2.5087
Be3ReTe,17.4668,17.9557,0.489
Al2OsSe,23.8793,23.3833,-0.4959
BRuPt3,59.2136,41.6193,-17.5943
NaTa2Sn,24.6018,32.6561,8.0543
Be2ReTe,21.014,23.4109,2.3969
BeRe2Te,23.9913,27.2531,3.2618
TaGa2Sb,40.5862,34.7827,-5.8035
Te2IrI,33.9557,37.6252,3.6695
Cr2SiAu,20.4491,19.8848,-0.5643
YNiHg2B,41.3475,34.6333,-6.7142
BaCr2Si,16.9242,13.889,-3.0351
Hg2PIr,15.8468,14.8955,-0.9513
LaPt2Rh,69.4358,46.9414,-22.4943
MnFe3I,33.2458,27.8398,-5.406
NaCdSn3,21.1703,20.8848,-0.2855
Ac2SmEu,45.6337,47.92,2.2863
Rb2Se2S3,38.1707,28.0507,-10.1199
NaCaRu2,0.4604,3.6027,3.1423
Na2SnBr,17.3733,18.4603,1.087
NaLi2SnRu,13.5556,13.2786,-0.277
Na2CuSnBr,35.7418,29.9819,-5.7598
NaCaSnPb,25.3835,25.2787,-0.1048
NaSn3Pb,28.41,27.7708,-0.6392
Tb2YErHg2,17.9184,18.4132,0.4947
FeCoAsRu,31.3942,26.1368,-5.2574
Cr2CoNi2,23.6784,19.7823,-3.8961
Tb2PrYHg2,12.2251,12.7003,0.4751
Ac2Cu3Ge4Pt,27.0005,25.5469,-1.4536
Tm2HfCu,52.8683,45.0873,-7.781
Ac2InSb4Pd3,38.1264,34.5333,-3.5931
Ac(ErGa)2,23.396,27.0049,3.6089
YZnNiHg,43.207,38.0905,-5.1165
AcTlIO,45.0805,45.5457,0.4652
Ac2PuGe3Pt4,57.8047,47.1674,-10.6373
RbZrGa,32.1515,28.7252,-3.4264
CdCo2Ag,16.0244,16.6847,0.6603
Ta2TePt,51.2678,46.4628,-4.805
Al2Zn2Pb,12.35,14.1646,1.8146
TaTePt2,64.435,50.7388,-13.6962
Sn3HgTe,21.3961,20.7917,-0.6044
Hg2Te2Pb,27.2855,26.7657,-0.5198
Ta2SiBr,25.131,28.4834,3.3525
Pr2MnIr9,39.9401,41.145,1.205
Mo2PF,16.1683,13.1077,-3.0605
SrGaPb2,31.6176,33.4596,1.8419
Y3Ga3Rh,10.9157,11.4345,0.5188
CsSrTa,24.9528,20.2631,-4.6897
CsZrTa2,50.693,47.9355,-2.7575
CsYHgSe3,31.1174,25.451,-5.6663
Cr2ReI,14.2943,16.0031,1.7088
Pr3(ReC2)2,35.0145,27.0592,-7.9553
NdYHgAu,29.9749,28.5445,-1.4304
K2YC,30.9102,26.2128,-4.6974
AgAs2Os,23.577,24.4464,0.8694
CoTeI2Cl,20.8658,20.5236,-0.3422
YZr4Hg5,44.0534,35.3181,-8.7353
BeOsRh2,35.009,29.9625,-5.0464
Hf3Os5N12,25.2494,15.0035,-10.2459
Pb2OF2,7.8828,11.9901,4.1073
Er4TcTe,24.0615,26.0854,2.024
Bi2Rh3S2,46.686,36.7582,-9.9278
Tl2InAs,32.9881,34.3603,1.3722
Ac2ScCrSe6,38.7633,33.8554,-4.9078
CaY2Si,26.8142,23.297,-3.5172
Sb2AsAu,32.8478,29.9087,-2.9391
AgAsOs2,31.9435,34.2482,2.3048
Na2TlInF,24.8758,22.8374,-2.0384
CrNi2W,27.4377,27.3802,-0.0575
Na3Np2TlTe6,42.4102,40.3256,-2.0846
TmPu(ScTe2)2,35.9922,34.5786,-1.4136
SbAsAu2,37.4558,36.2723,-1.1835
Cs2RbCeNb2O8,24.259,20.6204,-3.6386
SiTcSb3,49.6828,38.8131,-10.8697
SbAsAu,34.2015,32.8489,-1.3525
Ag2AsOs,29.0438,27.9068,-1.1369
LaFe2Cu,33.7422,25.6381,-8.104
Sb2AsAu,37.0438,29.9087,-7.1352
NdGaPdPt,36.9787,30.8518,-6.1269
Pt2Se,75.9353,54.5417,-21.3936
DyPaNb,71.1449,68.9286,-2.2163
Zn(InI)2,18.5603,19.1394,0.5791
YMg2BeHg,11.2581,9.829,-1.4291
AgBiWC2,79.0501,60.1221,-18.928
CaY(CdHg2)2,11.2583,10.5391,-0.7192
MoP2WO,71.6251,57.3908,-14.2343
La2Pr2O,30.1156,24.5409,-5.5746
Ca4ErTl2,21.5489,22.9229,1.374
Cs2GeSbF6,16.4891,14.6789,-1.8102
Zr3Co3Sn3H,37.0728,32.3009,-4.7719
LiAc2HPt6,66.284,48.4361,-17.8479
YMgHgBi,26.6502,25.059,-1.5912
Nb2GaI,73.6252,61.9939,-11.6313
La2NdAl6,16.1353,13.4381,-2.6972
NbGaI,52.6376,46.9644,-5.6731
Sc2AgPd2,15.4748,13.2149,-2.2598
SrTcTe,49.3766,44.5852,-4.7914
CoAsSe,41.1728,39.5694,-1.6033
TbScRe4,46.3029,44.4231,-1.8798
Eu2TcPd,41.9267,40.3117,-1.615
Y2MgHg2,17.3775,14.1382,-3.2392
La(PrAl3)2,7.4112,6.158,-1.2532
SmY2Hg3,16.876,14.822,-2.054
Np3(SeS)2,58.7791,54.9303,-3.8488
InMo3P,23.2164,20.8313,-2.3851
LaY2MgHg4,18.9976,14.5921,-4.4055
AgHgOs2,29.0368,30.5621,1.5254
Pm2NdAl6,10.1416,12.0614,1.9198
CaYHgAu,25.0563,23.7562,-1.3001
Cs7Rb5O6,9.3987,9.8855,0.4868
LiCuO2,12.1713,13.1322,0.961
YNiHg2Rh,43.3847,35.4756,-7.9091
Tc2Ge2Br,37.2436,33.829,-3.4146
YZnHg2S,22.7855,17.2561,-5.5294
SiC,1.832,1.9098,0.0778
Be2CdPb,20.4247,20.7203,0.2956
MgRhI3,24.1224,21.246,-2.8764
LiTb2V,45.8229,40.6137,-5.2092
MnTl3Si,54.1048,48.8846,-5.2202
BeCd2Pb,24.0807,24.1234,0.0427
Np2NbAl6,33.1858,32.6241,-0.5618
Cd2FePb2,31.161,30.8839,-0.2771
PrAsIr,0.0,3.1955,3.1955
IrIBr2,20.0308,24.4653,4.4346
Nd2Se2O,20.2277,19.4934,-0.7343
CsYMg2Hg,16.5535,14.3506,-2.2029
BaNdTe4,26.7097,26.8624,0.1526
GdBiRh2,45.0788,39.5482,-5.5306
YMg2HgCl,32.976,32.1629,-0.8131
Ba3AgRu,10.6407,9.883,-0.7577
NaGdBi,35.888,35.8028,-0.0852
Y(GaRh)3,21.1947,16.1172,-5.0774
Nd(TmAl3)2,11.4576,13.3832,1.9256
Eu2GaBi,29.2917,31.0649,1.7732
AcBiHPt,51.433,46.1447,-5.2883
TlSe2I,40.2453,36.4785,-3.7668
RbLiTe2,23.3188,21.1241,-2.1947
Y4Hg5Pb,25.015,20.9131,-4.1018
RbLiTe2I,23.8689,21.8498,-2.0191
Tb2Er2Tm3,25.0705,28.3792,3.3087
BaCaRe3,37.2005,34.4736,-2.727
Fe2SnHgPb,22.2906,19.5534,-2.7372
TlTe4Au,44.3932,42.8104,-1.5828
Co2Cu,21.3749,21.3825,0.0076
AcBi(H4Pt)2,24.8491,21.1082,-3.7409
Ce2TaAl6,11.3764,13.5966,2.2201
Ba3HfCr,35.182,25.7047,-9.4773
BeSbCl3,12.3824,9.6459,-2.7365
K2AlTe,17.2053,16.3684,-0.837
YMgHg3,11.0859,8.5843,-2.5016
FeHg2Pb,19.1988,17.4508,-1.748
Dy8IrPd2,26.5898,28.6744,2.0845
BaZn2Pb,16.8724,18.1801,1.3077
Fe3CI,17.3532,14.3414,-3.0117
BaTlTe4,35.978,34.9999,-0.9781
BaTmTe4,27.8872,27.8579,-0.0294
Li2Ca2I,4.5922,5.595,1.0028
FeNiC,28.8143,19.3547,-9.4596
Si2Ag2As,25.3608,20.2223,-5.1385
ThCd5Ag3,28.4863,27.0088,-1.4775
TaCuSe2,36.0753,32.0414,-4.0339
ZnTe2P,24.2028,23.956,-0.2468
SiAg2As,32.5112,27.2036,-5.3076
Er3Al3Cu2Pd,14.6378,15.4705,0.8327
Li(BC)3,38.0676,27.1488,-10.9188
Pu(PaAl3)2,24.6886,27.2784,2.5897
CoReC2,55.6025,44.8839,-10.7185
Y2GaHgCl,44.2008,40.8754,-3.3254
EuTlGa,28.8247,30.6907,1.8659
TbYHgPb,31.9501,31.1534,-0.7967
AgAs2Os,23.5384,24.4464,0.908
Na2AsIr,21.3484,20.3514,-0.997
LaCeErSn,31.48,29.5041,-1.9758
LiBC,28.7111,22.9415,-5.7696
Na3TiP,21.8379,17.7734,-4.0645
GdScCo2,18.7212,17.4813,-1.2399
TaCuAg2,27.6923,26.1874,-1.5049
CsAcTe4,37.9175,38.5559,0.6384
Pr2NdAl6,4.4026,5.5917,1.1891
LaTlRh,50.1588,41.6889,-8.4699
Y2TlW,39.477,32.9588,-6.5182
Rb2SrTaI6,21.4314,19.3954,-2.036
BC,29.6953,43.3092,13.6139
EuPtPb,56.1426,47.7494,-8.3933
Eu2PtPb,49.0467,42.9805,-6.0661
Ta2CuAg,22.5745,26.3354,3.7609
EuPtPb2,48.7184,43.1069,-5.6115
TaCuAg2,27.8886,26.1874,-1.7013
Pm2EuBi,33.1556,36.1245,2.969
Ta2CuAg,29.1053,26.3354,-2.7699
CoSb2Pd,30.6336,25.2484,-5.3852
AcErZr2,73.0188,64.9408,-8.078
LuSnSb2,35.6899,31.6965,-3.9934
KHf2SbP,70.7037,51.3857,-19.3179
KTeW2,27.9375,31.5879,3.6504
Ta2CuSe,33.0652,35.1077,2.0425
LaCo2Mo,19.9574,18.4656,-1.4918
LaMnN3,23.4921,17.5501,-5.942
NdGa5PdPt2,33.4458,25.6952,-7.7506
Sb2P2C,28.7283,20.889,-7.8393
Li2NiOs,12.5318,14.6521,2.1203
Gd2CoPt2,53.1418,40.3707,-12.7711
AcAl2H7Pt,14.4611,12.4498,-2.0113
Tb3Sm2Y7,19.0559,21.0448,1.9889
Sc2CrRe,37.2943,31.3557,-5.9386
AcHo2As,32.3304,35.4714,3.141
Li2NiOs,12.451,14.6521,2.2011
Li2NiOs,12.359,14.6521,2.2931
CaBe,11.3005,6.8916,-4.4089
LiTcBr2,38.4889,33.3569,-5.132
Pa2Os2Pt,61.1341,59.105,-2.029
CsBaTmWO6,9.929,11.5594,1.6304
Mn2In4Te,46.4279,40.7015,-5.7264
MnIn2Te,45.5562,40.4107,-5.1455
Li2TcBr,32.4674,28.2233,-4.2441
InPt2,66.1635,46.8366,-19.3269
MnIn3Te,40.4366,36.4317,-4.0049
Rb2TeRh,24.0696,19.2281,-4.8415
MnInTe,53.8955,46.9821,-6.9134
LaRhW2,44.6918,40.1297,-4.562
RuAuCl2,18.7168,20.1263,1.4096
BaBeTc2,49.4132,42.0948,-7.3184
Tb3(ErTm)2,28.5646,31.2494,2.6848
Ta2CuSe,33.1573,35.1077,1.9504
CaBe,0.0,6.8916,6.8916
CdAsPb2,30.6887,32.6973,2.0085
CrCoSi,10.518,10.5116,-0.0064
Cr2SiOs,18.7971,19.563,0.7659
Sm(HoAl3)2,10.5704,12.753,2.1826
Hf2AuF2,69.3535,52.1379,-17.2156
HfBiTe4,60.7217,52.9262,-7.7954
GdZrPb2,57.9657,54.7844,-3.1812
HfFeSbTe2,63.0839,49.8044,-13.2794
CaBeAs2,13.8047,11.1656,-2.639
SiAs,33.5977,28.5288,-5.069
I5N2,16.7686,16.2589,-0.5097
Li2TaNi,11.2825,13.4045,2.122
PrDy2Ir,22.9447,27.1484,4.2038
Ag3Sb5Pb,41.3951,33.5744,-7.8207
CaSiAs2,20.1163,17.9616,-2.1547
Li2NiRh,14.1275,11.9357,-2.1918
Re3(TcRu)2,48.2959,47.9728,-0.3231
BaZr2Te,59.8385,48.9362,-10.9023
Cs3SrZn,18.9931,19.3488,0.3557
Hf2MoAu,87.129,68.7049,-18.4241
SrPuO2,29.3187,27.986,-1.3327
Ga2SbF,17.1246,15.5047,-1.6199
AcH8RuPt2,22.7761,18.0433,-4.7328
Ca(TiBe)2,11.7868,10.6847,-1.1021
Er5Tl2RuRh2,34.4936,33.1296,-1.364
Np2PdO11,7.577,9.5344,1.9573
CaTb2Y,23.058,22.4876,-0.5705
ReSbPb,46.3,45.9584,-0.3416
Np2MoO11,7.1235,9.2115,2.088
Pu2FeO11,4.3095,6.3642,2.0546
Np2AuO11,5.8692,8.4149,2.5456
LiThScMo,30.6391,32.4338,1.7947
K2RuPt2,39.76,28.4556,-11.3044
Cr2SiPt,30.6146,21.9197,-8.6949
GdScGe3,14.2339,12.3818,-1.852
TlAsBr2,20.8075,21.2812,0.4737
ReTc(PbO3)2,30.5088,29.2202,-1.2887
Sr2TaW,43.4357,31.0219,-12.4138
Cs2ScPCO7,28.6771,24.8261,-3.851
Th4TcPd,54.2585,54.9399,0.6814
CaBe4As,12.7353,8.4526,-4.2827
KLaNb2Sb,79.7828,62.2992,-17.4835
Ir2IBr,27.3901,30.4226,3.0325
V7Mo2Os3,90.4745,72.1836,-18.2909
La2GaGe4Pt3,40.8363,28.9876,-11.8488
In3GaP,21.301,19.6657,-1.6353
Cr2ReSi,18.3358,18.4981,0.1623
Cr2ReSi,18.5318,18.4981,-0.0337
Rb2NiP2,11.3956,8.3769,-3.0187
Cr2ReSi,18.352,18.4981,0.1461
Ag(HgAu3)2,32.5076,33.2801,0.7725
In2AgAu,29.5126,29.4484,-0.0642
Cr2ReSi,18.3857,18.4981,0.1124
TlAsBr2,20.7545,21.2812,0.5266
In2AgAu,29.539,29.4484,-0.0907
V(CoCu)2,50.3544,39.0849,-11.2695
Na3BiF6,15.9516,14.7752,-1.1765
Ag2AuI6,25.4648,24.3835,-1.0813
LiCoCuO4,19.9881,16.7076,-3.2805
TaReSiH,43.2742,42.6639,-0.6104
Hf(AgI3)2,34.3372,29.4437,-4.8935
La3AgRu,40.7145,28.5715,-12.143
Be2TeBr,14.1429,13.9873,-0.1556
Cd2IrPb,30.6395,34.457,3.8174
LiMo2Pb,15.3553,19.7782,4.4229
Y(TmAl3)2,16.5987,16.3289,-0.2698
Ru2RhPb,44.9154,41.2149,-3.7005
SiAs,10.0567,28.5288,18.472
Sr3Sn3Au8,33.7995,35.3311,1.5316
Sr2Tl2O5,0.0,1.9088,1.9088
TaCo2Mo,37.1242,31.081,-6.0432
La6PrAg2,40.7779,28.0952,-12.6827
La(Pr3Ag)2,9.4119,7.7786,-1.6334
SiAs,0.0,28.5288,28.5288
TaCo2Mo,37.139,31.081,-6.058
BeTe2Br,24.2326,23.6484,-0.5842
TaAuSeBr2,31.2158,29.7584,-1.4574
YMo3N,34.1152,31.0372,-3.078
Tm5IrRu4,27.3357,28.9218,1.5861
BeTeBr2,16.7592,16.615,-0.1442
Cr2SiRu,15.583,13.1285,-2.4545
TaCo2Mo,37.1974,31.081,-6.1164
BeTeBr2,16.4697,16.615,0.1453
BeTe2Br,24.3613,23.6484,-0.7129
Re2AgTe,39.3247,38.707,-0.6177
Zr2Sn2P,41.1371,34.9892,-6.1479
AlTl2Mo,31.9015,32.0519,0.1504
Sc3Ga,5.6269,7.9436,2.3167
ReAg2Te,36.9664,34.1665,-2.7999
Ce(NdAg3)2,28.9167,25.9363,-2.9804
BaC3I,44.3837,31.6241,-12.7596
BeSiAs2,23.0251,17.897,-5.1281
V7Mo3Os2,89.4164,69.8869,-19.5295
Sr2Cd4In3Pb,23.3373,22.219,-1.1184
Cr2SiSb,19.9244,16.1944,-3.73
Li2TcNi,25.1443,23.1407,-2.0036
Tl2SbSe2,45.0983,39.3489,-5.7494
LiTe2SeN,27.5885,24.3104,-3.2781
NaLa2BiO5,25.2018,23.9563,-1.2455
La2InAg6,34.3481,26.3437,-8.0043
ZrTaTe,59.0567,53.6995,-5.3572
TaCr2Se,51.4138,38.9358,-12.4779
Ho(ScAl3)2,6.8437,8.2565,1.4129
CsReOs,14.7002,19.3504,4.6501
Tc3(PtRh)2,79.4874,61.4443,-18.0432
ErTlAgSe2,36.7539,33.5608,-3.1932
ScSb,9.7017,20.4257,10.724
Sc3Ni,0.0,2.637,2.637
Sr12Bi5N2,22.2624,23.4111,1.1488
Sr12Hg5N2,8.611,9.3039,0.6929
Tb(NdAg3)2,29.0689,26.2388,-2.8301
Cr2SiSe,20.6806,18.3357,-2.3449
BaAgRu2,17.8192,17.0305,-0.7887
In3Ga3Ge2Ir,16.2513,17.5442,1.2929
Ta4AlN3,7.8095,15.9841,8.1746
Ba3LiRu,5.1182,5.1836,0.0654
Pm(ScAl3)2,6.9359,7.6898,0.754
Ca3CuN3,0.0,0.3587,0.3587
AcZnH6Pt,17.8439,14.9233,-2.9206
Li2CoCuO4,25.0873,21.3032,-3.7841
Na3Th(ZrTe3)2,48.1369,42.3254,-5.8115
TaAuSe2,44.9225,41.6531,-3.2694
Pr(NdAg3)2,25.5779,22.6602,-2.9176
LiV(CoP)2,34.1853,26.1696,-8.0157
AgGe2N3,3.3668,5.3304,1.9637
Sm2ThAg6,33.5741,30.7554,-2.8187
TaSn3P,23.1486,22.6306,-0.518
Ce6Cd2Ag,24.2833,25.6012,1.3179
Np2AgAu6,50.4614,51.4518,0.9904
Ga2NiN3,3.6631,4.8845,1.2214
CaSmY2,19.5334,18.0307,-1.5027
Rb(SiIr)2,23.2832,21.8232,-1.4599
BiMo3P,28.0889,26.8186,-1.2704
Sr2Sb2Au15,43.2183,42.8664,-0.3519
MoRh2Br,25.8121,21.785,-4.0271
Ce6Tl2Ag,31.3134,32.5816,1.2683
Li5Co2Cu3O10,23.5317,19.8021,-3.7296
LiCa2Be3Si4,22.6229,17.7647,-4.8582
NpCu2Bi,35.0387,37.3589,2.3202
Pm5Y4Hg,25.2232,25.3148,0.0916
Zn2OsN3,30.596,24.7553,-5.8406
V7Tc2Ru3,94.6619,75.4519,-19.21
V2CoP,66.4836,52.4688,-14.0148
Ti2CdNi2,9.7443,8.8304,-0.9139
AgSbRu2,28.304,25.5223,-2.7817
In2Co3N4,73.1361,63.1679,-9.9681
Li4Co3CuO8,21.2202,18.9908,-2.2294
Cr3N4,9.605,9.0452,-0.5597
V2Co2Cu,60.494,48.1878,-12.3062
Sm5Y4Hg,25.3353,25.2266,-0.1087
CeI3,22.1561,24.4222,2.2661
LiCu2P,5.8038,5.528,-0.2757
Pr5Y4Hg,11.9585,10.7717,-1.1868
LiCuP2,9.2875,7.7253,-1.5621
Pu2CdAg6,39.1191,35.1894,-3.9296
Sr2ThZrAs4,32.7261,28.2434,-4.4827
PaGaRuN,38.3116,39.6669,1.3553
ScBi2,32.6911,36.9693,4.2782
Cr2SiTc,31.4413,27.4022,-4.0391
PrY5Hg4,24.4084,19.3201,-5.0883
BaY4Hg5,25.8673,20.8013,-5.0661
La2TbAg6,35.0629,27.8146,-7.2483
Ru2PbAu,33.4258,36.3243,2.8984
TlSiSb,37.3577,32.7549,-4.6029
Pr4Y5Hg,13.5024,12.5784,-0.924
Rb5Sr3Br12,0.0,0.1722,0.1722
Pr2ErAg6,22.8449,19.9649,-2.8799
TbY2Hg3,17.1449,15.2867,-1.8582
Cr2SiTc,31.6186,27.4022,-4.2164
Cr2SiTe,19.1634,17.3664,-1.797
Ti4MoOs,6.5603,9.3439,2.7836
Y2AlHgMo,32.3529,24.4369,-7.9161
Nb8N5,86.6129,70.2139,-16.399
CdOs2Pb,39.8951,42.4551,2.56
Ti4ReMo,5.7875,9.3662,3.5787
TlSiSb2,39.1333,33.4814,-5.6518
Ca2TcPb,39.1856,36.9699,-2.2157
Lu2ScPb,31.007,33.7067,2.6997
YMoN3,23.5917,19.7338,-3.858
Ca2TcPb,39.141,36.9699,-2.1711
Sr5SmSb4,26.2934,23.3563,-2.9372
CaTcPb2,50.9783,49.9246,-1.0537
SmPaAu2,46.2828,49.2802,2.9974
ZrTlSb2,59.7448,50.3481,-9.3967
TlMo2Au,32.691,34.941,2.25
La2AlAu6,42.6603,39.711,-2.9493
Rb2GeBi2,22.5876,22.3137,-0.274
BaGePb2,24.878,27.2303,2.3523
Ta2AlNi6,12.3702,14.6067,2.2365
SmSbRh,32.4522,28.0381,-4.4141
MnTe2Pb,54.7121,49.3778,-5.3344
Y4HgPd3,30.8336,25.1559,-5.6778
TlCr2Si,21.717,20.3225,-1.3945
ZrSb2TeW,55.2631,46.1286,-9.1345
Ba(GePb)2,20.9624,23.2609,2.2984
BeNi2Br,6.1739,8.638,2.4641
HfUTe4,62.7913,55.4872,-7.3041
BeNiBr2,7.6685,8.713,1.0445
SmY2HgN,39.1611,32.4981,-6.6629
BeNiBr2,7.1955,8.713,1.5175
ZrTlN2,30.1238,28.3377,-1.7861
Be2NiBr,4.7072,4.2848,-0.4224
YMnNi,100.6675,85.744,-14.9235
Ce2(InAu2)3,35.3313,36.5398,1.2085
Cs2(InPb2)3,38.4425,39.1188,0.6764
PmY3Hg4,17.8402,14.8098,-3.0305
LiV3Co,80.2592,62.8376,-17.4217
NbCdP2,42.2004,37.399,-4.8014
ZnIr2Pb,41.2668,39.5744,-1.6924
ZnIr2Pb,41.2508,39.5744,-1.6764
LiCuO2,17.2772,13.1322,-4.1449
ZnIr2Pb,41.3184,39.5744,-1.7441
GdURu2,32.43,36.9531,4.5231
TaAuSe2,45.1857,41.6531,-3.5326
RbNa2Al,12.4319,10.2916,-2.1404
CsUTe4,38.1689,38.4791,0.3102
BaAsPd2,6.2297,9.3246,3.0949
Ba2LaZr,34.7162,27.5235,-7.1926
AlCr4Si,15.7618,14.1412,-1.6206
CoSiSe,22.964,20.596,-2.368
Ta2SiC,26.5647,27.9342,1.3695
Re2OsAu,42.7095,47.6556,4.9461
Y4HgIr3,24.5564,24.6883,0.1319
AlCoNi2,23.7269,19.2574,-4.4695
ZrCrS2N,50.8472,38.639,-12.2082
Re2OsAu,42.584,47.6556,5.0716
Pr2AlAu6,30.3518,31.6792,1.3274
ReAsIr,22.7892,30.5898,7.8006