Formula,E_hull_DFT (eV/atom),E_hull_ML (eV/atom),Delta (ML - DFT)
Be2NiF,5.0389,6.7121,1.6732
CeZnInPd3,12.5653,15.8707,3.3054
Ta2SnC,39.855,38.5917,-1.2634
SrBiI2O,36.4156,32.9476,-3.4679
CoSiSbTe2,31.5423,26.078,-5.4643
K5Pm2F12,8.4738,8.3717,-0.102
GdTlAu2,43.1728,45.2067,2.0338
TaNi3C,23.3684,21.971,-1.3974
CrPI2,39.2356,33.1894,-6.0462
HgTeW2,30.7642,32.6673,1.9031
PmYHgBi,31.9402,31.1646,-0.7756
CaY2HgC,33.1157,25.3116,-7.8042
CrRuPb,19.2078,21.8104,2.6026
P2AuI,22.3256,21.771,-0.5546
YInGaHg,19.4278,17.8697,-1.558
AlHg3Pt,18.8671,13.0471,-5.82
ZrSc2Cl,44.8467,40.4916,-4.3551
PAu3I,35.5537,35.3294,-0.2243
LiMg2Pb5,30.5257,32.0948,1.5692
H4SeS,13.8826,10.3933,-3.4893
InCoTeI2,23.596,23.195,-0.401
Er7Ru2C11,37.8928,31.2543,-6.6385
Nd2PuSb,41.1083,40.7527,-0.3556
Eu6Np,35.5875,36.3961,0.8086
CrP3Au,33.8042,29.2218,-4.5823
Gd2(Zn2Ge)3,11.6272,12.7525,1.1253
ScCuAgRh,38.4372,30.5891,-7.848
TbYHgPd,24.0781,22.5255,-1.5526
Cr2PAu,40.8464,35.7364,-5.11
Co2TeRuBr,22.3136,20.132,-2.1816
In2(AgAu2)3,37.9604,37.087,-0.8734
Na(AgTe)2,34.0458,30.0347,-4.0111
ScNb3Au,96.9684,80.9659,-16.0025
GdGeN2,0.3917,4.4254,4.0337
Er5(Pd6Pb)2,23.7552,25.373,1.6178
Y2BeZnHg,26.5791,19.3253,-7.2538
Y2NbTlHg,59.7194,49.4585,-10.2609
SnSb2Pd,35.5285,28.698,-6.8305
PaTaW,47.7391,53.5166,5.7776
U6Cd3Cu2H,41.2985,43.6762,2.3777
Na2YHg,25.0446,20.0901,-4.9545
Pr3Pt7Au2,58.0549,41.7308,-16.324
NdTmZn4,13.9888,15.6411,1.6524
TlZnInPt2,52.2634,40.3433,-11.9201
HfCo2SbTe,50.5448,39.1883,-11.3565
TbEuGa,20.9069,23.2475,2.3406
Mn2ZnAuN,58.4005,49.3905,-9.01
NiTeP2,19.1105,17.5985,-1.512
ZnCN2,18.6441,16.9273,-1.7168
Ba2NaPt2,40.1912,27.6639,-12.5273
GaCoSb2Te,30.5053,25.3117,-5.1936
Ac2Ga4SiPt3,43.7617,34.9746,-8.7871
Ni2Te,13.3381,15.9857,2.6475
LaScMo,36.2235,31.3568,-4.8667
NiTe2P,28.4193,27.0965,-1.3228
CsTeNO2,43.3513,41.1523,-2.199
Si2TePb,31.4545,27.4599,-3.9946
PSCl2F,17.1505,16.1687,-0.9818
ZrCoSbTe2,48.329,39.7519,-8.5771
Si2TePb,31.5523,27.4599,-4.0924
NiAgRh2,34.8585,27.1901,-7.6684
Si2TePb,31.6864,27.4599,-4.2264
Si2TePb,31.7079,27.4599,-4.248
SnSbTe2,37.5414,34.2972,-3.2441
La2MoAs,32.2299,25.2302,-6.9997
RbYAgHg2,17.719,13.3791,-4.3399
Y12Ho5Er,18.7514,20.5986,1.8472
LaMoAs2,21.113,19.5774,-1.5356
LaMo2As,23.3968,20.9594,-2.4374
CrNi3Te,23.3792,22.4399,-0.9393
LaMoAs,25.3484,22.4216,-2.9268
NiTeOs,30.8357,33.3284,2.4926
Ba2Zn2As,4.8779,4.5147,-0.3632
TlZnTeN2,37.287,33.2235,-4.0634
AgIrW2,71.3215,61.8395,-9.482
AcPdPt,56.6084,49.5678,-7.0406
Pr9Y4Tl11,24.6288,25.2202,0.5915
RbBaHf2,73.8553,52.9947,-20.8606
Tl3GaTc,51.2425,49.0063,-2.2362
Ag2IrW,70.147,57.652,-12.495
SnSbTe,35.9027,32.3758,-3.5269
LiTh2ScS4,48.665,42.8353,-5.8297
CaCoTe2F,33.9834,28.9057,-5.0777
Ni(BiTe)2,36.0738,36.0871,0.0133
ZnTcN2O,44.836,36.197,-8.639
Cd2ICl,14.6903,15.533,0.8426
Na(CeTl)2,31.427,32.9713,1.5442
TbNb2,103.4395,88.0722,-15.3673
RbBaSe4,31.4759,24.9657,-6.5102
Pm9Pr11Y4,10.8579,11.7318,0.8739
Sr3MgTc,27.6986,25.4147,-2.2839
RePtSe4,53.5715,43.4056,-10.1658
NaCuBiS2,35.6344,29.9028,-5.7316
TlFePS2,48.0066,38.6592,-9.3475
In3SbRh,31.7874,26.8428,-4.9446
AcYLuHg,37.2346,36.0851,-1.1495
MgCo2BTe,16.8253,14.7322,-2.0931
RbU(CuP)2,22.3276,20.9032,-1.4244
In(NiAu)2,25.527,27.2223,1.6952
In2NiAg2,18.8207,17.8023,-1.0184
AcLaPa,56.162,55.6489,-0.5132
La2Pm3TaN6,16.9436,16.4253,-0.5182
CeNdSc2,15.0326,17.4829,2.4504
La2MoPb,42.9163,35.6489,-7.2674
LaMo2Pb,34.5339,31.8432,-2.6906
LaMoPb2,38.3073,36.4323,-1.8751
ZrCrBr2,46.2966,39.4902,-6.8064
La4SbOs,49.4381,36.1276,-13.3106
YTlCuHg,30.5458,28.2164,-2.3294
Y2NiHgPb,65.2146,56.5579,-8.6568
NiTeC2O,37.4644,27.7098,-9.7546
DyHf(UAs2)2,42.8253,39.5312,-3.2941
Y2HfAgHg,55.929,41.344,-14.585
Li2YHgIr,19.8905,17.8403,-2.0502
PaCuTc2,65.08,60.7552,-4.3249
AcMoPt,49.2897,44.428,-4.8617
InNiTe,23.1765,24.2641,1.0877
NiAuF2,17.396,20.781,3.385
TcNi2Te,37.1768,35.4212,-1.7556
SiNiTe2,26.7625,24.0261,-2.7364
NiTe2Os,33.6249,34.1205,0.4956
NiSbTe2,39.1031,33.9347,-5.1684
Na(InSb)2,30.6408,26.2766,-4.3642
Rb2Ba2Te,6.479,5.9838,-0.4952
TcPtSe4,62.2954,49.3275,-12.9679
PrTiAl4,3.4273,4.0328,0.6055
Na2CaLa2,29.2375,21.3969,-7.8406
NiAgTe2I,29.9604,27.4715,-2.4889
HfTiNi2,22.6878,16.3378,-6.35
SrCaSc2Rh,20.8151,14.1262,-6.6888
CaScRhAu,29.4143,25.0922,-4.3221
Ac4CoTe2,49.094,49.954,0.8599
ZrAl4Ge,26.4311,22.5187,-3.9124
CeAgBi2,36.2671,37.4462,1.1791
CoB2Te,1.056,6.4629,5.4069
Ni2AgTe2,21.6473,21.1373,-0.51
SiSe2N,28.8586,23.2184,-5.6402
Rb2NaTe2,21.6693,19.8524,-1.8169
Tc2AsRh,54.5774,47.4204,-7.157
MoSBr2,18.9082,18.0042,-0.904
NiTe2Pt,40.1192,34.1035,-6.0156
TcNiTe2,40.6759,38.7676,-1.9084
Si(SeN)2,23.1935,18.0351,-5.1585
CeErSi4,18.3494,14.7179,-3.6315
NiTeC,31.1457,24.8837,-6.262
CaHoSi4,3.3117,1.3627,-1.949
La2CoTeAs,36.3341,26.6003,-9.7338
Ni2TePt,31.0777,27.299,-3.7787
Ac2Tb(PtO4)3,22.6225,19.752,-2.8705
NiTe6Ir,37.6874,36.0842,-1.6032
SrErAu2,33.6361,35.803,2.1669
AcEuAlPt,45.8035,40.8306,-4.973
YHgBiF2,22.5443,19.9488,-2.5954
YZrV2Hg,82.9506,63.8802,-19.0704
Ni2TeAu2,26.0394,28.0206,1.9812
Ba2NaSb2,22.0404,18.3371,-3.7033
SiMo3Br,16.1716,16.0475,-0.1241
FeNiSbTe2,45.4984,35.6897,-9.8087
CoTeAsF2,29.5869,24.1913,-5.3955
CeHoSi4,18.164,14.6031,-3.5609
CsPrPu2O8,15.1571,14.9318,-0.2252
NiSbTe2Ir,40.3786,36.2006,-4.1781
Rb2BSeF6,8.7496,6.6231,-2.1265
NiTeC2,44.5633,34.856,-9.7073
Hf(CoBi)2,47.0476,41.6295,-5.4182
CePmSi4,17.5493,14.0952,-3.4541
CePaSi4,24.6893,21.4835,-3.2057
Ni2TeAs2,25.456,21.5129,-3.9432
NiTeC,37.1727,24.8837,-12.289
Ni2GeTe3,27.5777,24.9525,-2.6252
NbCr3Os4,42.0394,40.6604,-1.379
NiGeTe2,29.5443,26.7809,-2.7634
CrNiTe3,37.6537,34.3953,-3.2584
SrY2HgPd,26.4988,21.8387,-4.6601
Ac3BiP2Pt9,70.0489,52.2767,-17.7722
SmYLuHg,27.1977,26.197,-1.0007
Te2POsN,43.7865,37.7405,-6.0459
TlNi2TeOs,31.5224,31.8083,0.2859
Nb2CoSnTe,71.4703,60.3837,-11.0866
ZrTaO3,34.4345,27.3588,-7.0758
Cr3FeMo2,7.2102,8.6206,1.4105
FeNiSbTe2,45.5751,35.6897,-9.8854
Er3TlCu8,15.8794,17.3221,1.4427
PbAu2F,35.0269,38.5451,3.5182
Si2NiTe,20.033,16.2934,-3.7397
Ca2CoGeTe,15.696,14.5447,-1.1514
NiTeC,31.1866,24.8837,-6.3029
V2In2Pb,65.0682,54.9704,-10.0978
Ni2Ge2Te,21.7767,17.3363,-4.4403
NiSb2TePt,50.12,37.6854,-12.4346
RbTl2InRu,46.3302,43.4916,-2.8386
Tb3(ErTm2)2,24.681,27.7123,3.0313
Tb4Pm2Er3,22.665,26.0548,3.3898
ReNiTe2,52.6516,41.8474,-10.8041
Rb(BaTe)2,12.6884,12.9917,0.3033
RbNiTe,12.5067,13.1124,0.6057
BeNiTe,11.3647,13.1716,1.8069
Co2NiF,28.0766,19.9302,-8.1464
NiAgTe,26.6938,24.884,-1.8098
TeIrOsPb,39.1921,44.0111,4.8191
NbCr4Ru5,25.8549,25.2793,-0.5756
Rb2Ba2Te,7.0326,5.9838,-1.0488
Ni2AgTe,21.8133,21.4022,-0.4111
NiTe2As,34.68,30.8144,-3.8656
ZrMnPt,78.2963,59.672,-18.6243
Na2CoCSO7,10.6003,11.0491,0.4488
Rb3CoTe2O9,8.5921,7.1044,-1.4877
TeIrPb2,48.2499,49.1983,0.9484
TbYSiHg,28.3853,26.3724,-2.0129
AcTh(GePt)2,53.6161,45.6643,-7.9518
NiTe2Os,33.3142,34.1205,0.8063
SrCdMo3,20.5392,19.1147,-1.4245
Nb2AlCoTe,78.4259,61.9196,-16.5063
NiTe2W,34.5817,34.0773,-0.5045
Cr6CoTe2,16.458,14.8796,-1.5784
NiTeAu2,35.9739,36.5424,0.5686
Zn2CoAs,14.8378,11.1145,-3.7233
TlNiTe,33.101,34.1841,1.0831
Hf2CoTeAs,72.844,53.8576,-18.9864
Pr(Ni3Rh)2,17.9087,14.8273,-3.0814
NiTe2Au,35.0121,34.5634,-0.4487
NiTe2Pt,45.0875,34.1035,-10.984
GeMoRu,15.3683,17.689,2.3207
MnBeCl,36.4755,29.5986,-6.8769
Cr3Tc,20.6863,21.7678,1.0816
YTmHgTe,29.979,27.6449,-2.3341
Na2TlSeS,40.402,33.6167,-6.7852
Al2HgW,11.3717,13.6678,2.2961
BeNb2Ni,72.3024,60.8326,-11.4698
BaGaSnPb2,29.0316,28.4584,-0.5732
Yb6NiTe2,32.6465,32.9681,0.3216
VCoTeAu2,55.7752,48.9978,-6.7775
LaNpSi4,9.0874,6.2603,-2.8272
SbOsPb2,48.813,47.8061,-1.0069
SbOsPb,46.913,46.1584,-0.7546
ScCoAu2,22.4557,24.9417,2.486
LiHf2CoTe,68.5263,50.9267,-17.5996
TeOsPb,40.0476,41.8085,1.7609
SbTeOs2Pb,46.3504,44.5835,-1.7669
TiCoTeRh2,44.5279,34.237,-10.2909
NaRh2Au,38.6573,32.0024,-6.6549
CsPrCrHS,16.6108,13.7049,-2.9058
Cr5Re3,20.5498,22.8898,2.34
Cr5Re3,20.5494,22.8898,2.3404
CaGa4CoIr2,20.2081,19.4699,-0.7382
V2CoTeAu,72.1851,59.2499,-12.9352
LaCeSi4,22.0082,15.057,-6.9512
SbOs3Pb,47.4334,46.6671,-0.7662
Hf3Tl3NiTe8,61.3028,51.1622,-10.1405
AlTc2W,57.7426,52.5016,-5.241
PrPbAu4,39.0648,40.8432,1.7784
NaCe(ErSe2)2,35.9204,31.9191,-4.0013
Hf2CoTeRh,77.7014,57.0611,-20.6403
Na2SbPb2,39.7208,36.5599,-3.1609
YTiHg2Ru,20.9238,17.2864,-3.6373
AlReW2,30.1033,36.9119,6.8086
Cr4Ru3W,30.134,23.6622,-6.4718
YThHgC,43.9205,39.9088,-4.0117
TcW,66.7058,9.5293,-57.1765
Ac3Ga2SbPt9,70.1451,51.6351,-18.51
Li(Tm2H5)2,9.4275,11.4151,1.9876
YHgSbTe2,35.8994,29.7546,-6.1448
CeGdGe2,17.5372,20.5512,3.014
Sm5Co2Te,16.4924,19.4014,2.9091
Y(AgS2)3,31.8361,21.4778,-10.3583
CuSnRh2,53.7684,42.864,-10.9044
SbPt2Br,67.0053,49.6472,-17.3581
K2FeTc,30.6098,26.83,-3.7798
ReP2S,40.7131,36.9396,-3.7735
Al2InW,16.2761,18.8099,2.5338
Al2HgW,11.6345,13.6678,2.0333
Na(Cu2As)2,10.0941,10.7659,0.6718
TlFe3I,16.0838,17.0201,0.9363
NdScS2,43.5032,39.0631,-4.4401
Ag2RuBr,28.4003,23.5109,-4.8894
LaSmSi4,22.0515,15.11,-6.9415
Be(NiBi)2,20.8099,23.6356,2.8257
Al2WAu,17.8184,23.2809,5.4625
NaAl3W,16.2803,16.1864,-0.0939
TmUSb,41.1131,42.0051,0.892
V2FeP,73.4559,59.4164,-14.0395
CaScV3,83.8943,63.9434,-19.951
Hf3CoTe,97.2861,71.3885,-25.8976
Tm2Al3W,11.9519,16.553,4.6011
Na2ZnPb2,30.0704,28.9989,-1.0715
Li2AlW,13.8458,14.351,0.5052
Sr2BiB,20.7998,22.727,1.9272
Al3PdW,13.8924,15.7121,1.8197
SrBrF,7.6411,8.4874,0.8463
Na(CdBi)2,34.3395,34.1749,-0.1646
YRe2HgOs,36.8893,35.9092,-0.9802
Al3WC,22.875,19.7179,-3.1571
TaSi4Mo,40.789,32.6307,-8.1583
Co2Te3Pd,22.3878,21.8844,-0.5033
Tm3CoTe,22.3402,24.6285,2.2883
LuCoTe,26.5478,28.3419,1.7941
Au2IO,44.3303,40.4596,-3.8707
U2GeH3,17.8667,20.5105,2.6438
Pu4SiAu,58.1682,59.0544,0.8861
Si4TcMo,27.4368,21.8383,-5.5985
AlPt3W,62.9065,45.5241,-17.3824
ZrFe2CoTe,40.3848,31.9718,-8.413
Al2HgW,11.3448,13.6678,2.323
NbSi4Mo,35.5586,28.128,-7.4307
CoTeSeBr2,29.4305,24.4011,-5.0294
Y2VHgBi,57.2535,46.8783,-10.3751
Tm5CoTe2,25.1791,25.8697,0.6907
AlZnW2,22.0533,26.2909,4.2376
CaAcSbPt,51.5496,42.7353,-8.8144
TaGaCoTe2,45.5515,38.3572,-7.1943
Li4AlW,9.6432,10.7521,1.1089
AlInW2,25.3192,30.5405,5.2214
AlInW2,25.3187,30.5405,5.2218
AlTc2W,57.9365,52.5016,-5.4349
Hf2Nb2Au,114.7194,89.7274,-24.992
AlPt2W,54.6734,42.6154,-12.058
ZrCo2AgTe,37.8644,32.3031,-5.5613
Ca2AlPbW,21.6845,23.2602,1.5757
Ac2TmSb3Pt4,64.2422,50.0137,-14.2285
AlRhW4,34.732,36.7301,1.9981
Hf2Nb2Re,121.9935,96.9543,-25.0392
Mg3Pa,15.8674,18.9165,3.0491
Sr11Pd4Pb9,28.2899,29.0987,0.8088
ThHgOs,29.68,37.5054,7.8254
Tm5CoTe4,31.7753,32.1071,0.3318
Hf(NbIn)2,93.304,75.8434,-17.4606
UPaSi4,32.1338,29.0683,-3.0654
Cs(BaCa)2,5.4464,6.9769,1.5305
CeThPa,52.8404,57.4924,4.6519
CaAl2W,12.8043,15.0313,2.2269
CoTePd,19.77,19.7781,0.008
TaTe2Pb,43.6002,43.6281,0.028
TaTePb2,46.3742,47.0728,0.6986
CaAl2W,12.9274,15.0313,2.1039
CsLa2Ta,37.4688,30.4437,-7.0252
Al(WSe)2,29.2006,28.081,-1.1196
TmCoTe,21.0534,24.0201,2.9667
VSb2Rh,60.6229,46.3283,-14.2945
La(HfMo)2,74.4263,55.7045,-18.7219
BeZn4Mo,11.9323,11.1068,-0.8254
La2BiMo,37.5214,32.6068,-4.9146
AlSbW4,34.1864,36.5309,2.3445
CsTl2BiF6,17.0183,18.132,1.1137
Tc3IO,75.0985,62.257,-12.8416
K2Ca2Hg15,1.3635,1.5347,0.1712
ThCoTe2,39.0335,40.2173,1.1838
Y2ZnInHg,21.5335,18.3056,-3.2279
Pa(HgCl2)2,10.7529,12.4593,1.7065
K2Tl15Sb2,46.0911,45.3329,-0.7582
GaCo3Te,14.6033,15.596,0.9927
ZrCoTe3,46.7217,40.4637,-6.258
CoTe2Pd,29.3618,27.3476,-2.0142
SmCoTe,23.7092,25.1262,1.417
LiCo3Te,13.7922,13.7108,-0.0815
LiPr2NpTe5,23.4977,23.7181,0.2204
TaGaOs,48.1781,44.3628,-3.8153
Cd2CoRuO6,8.7977,8.7243,-0.0734
SrY2(TlHg)2,30.5881,28.0901,-2.498
Y2CuHgC,36.3989,28.1036,-8.2952
Y9Tm4In11,20.8774,20.493,-0.3843
CoSb2TeO,35.5309,30.9295,-4.6014
Ba4Pu3CoO12,9.6168,11.4618,1.8449
YbZn2Co3,20.5651,14.9379,-5.6272
PrThSi4,19.5099,16.1631,-3.3468
Rb2TiInBr6,8.7579,8.9875,0.2296
InCoTe2I,27.5138,26.5253,-0.9886
YHgRh2W,39.7865,30.6615,-9.125
AlSbW2,31.7844,32.8207,1.0363
BiTe3As,34.6258,34.675,0.0492
Al2TlW,24.2261,26.6005,2.3743
Ac3CoPd2O9,21.8673,22.0375,0.1702
CoTe2WI,32.3183,31.1171,-1.2012
HfZn2Co,43.5345,30.7167,-12.8178
SbRu2W,48.9116,41.0902,-7.8213
Li6HgAu,7.062,7.7459,0.6839
LuNbNiIr,55.8115,53.0319,-2.7796
YZnHgW2,30.0162,27.7974,-2.2188
BeGeSbW,20.5312,20.1991,-0.3321
Ca2GaSb,13.8066,13.0332,-0.7733
YSc2HgB,41.7285,35.2991,-6.4294
CoTc2TeI,53.0626,46.686,-6.3765
Y2TaReHg,44.3554,37.0831,-7.2723
ScCoTe2O,70.0917,62.5875,-7.5042
TaAg2GeC,35.0519,29.5038,-5.5482
Ta2Ge2W2C,33.121,34.3096,1.1886
Li2Si,8.8574,9.9482,1.0908
CoSbTeI2,29.1244,25.7903,-3.3342
TiCrSi4,19.6681,14.8899,-4.7781
Rb2BaCuF6,0.0,0.1899,0.1899
Y2HgBW,59.8606,49.9586,-9.9019
RbNaW2,26.0605,25.5206,-0.5399
Gd2SbPd,30.0368,29.4755,-0.5613
Kr,12.5356,12.5509,0.0153
YScBeHg,16.3932,13.5708,-2.8224
Re(PS)2,50.0762,40.8937,-9.1825
ZnMoBr,11.7869,13.7876,2.0007
NiTe2I,28.5103,27.6608,-0.8496
AcPuSbPt,67.0454,59.4943,-7.5511
NiTeWI2,29.2062,27.7632,-1.4429
YHf2HgP,73.2456,51.4872,-21.7585
Pt3IBr,62.3905,43.8871,-18.5034
NiTeOsI2,28.3923,28.283,-0.1093
Th11In9Tc4,52.8868,51.7697,-1.1171
AgH4Br,4.1549,4.6649,0.5099
AcNdSbPt,55.0539,47.8402,-7.2137
PaSbMo,33.7062,36.449,2.7429
Mg(Cu2H3)2,9.4479,7.8691,-1.5788
Ta(NbRe)2,80.0002,73.757,-6.2432
Ta(NbAu)2,82.8825,75.0022,-7.8803
U2Si6IrOs,31.5164,28.6991,-2.8173
TlMo2Cl,25.1848,23.8639,-1.3209
YHgBi2S,43.9307,38.472,-5.4587
YHgPdPt,39.7358,29.6545,-10.0814
NaAgSb2,33.269,27.5282,-5.7408
CsTl2FeF6,11.5784,12.5732,0.9948
Ta2NbMo2,38.7058,38.9935,0.2877
Ac11Tl9Zn4,49.5966,50.7797,1.1831
YZnSnHg,21.0484,17.8298,-3.2186
Tb4Dy9Zn11,17.9544,19.2493,1.2949
CoNiTe2,43.084,36.2237,-6.8604
FeOsRu2,36.3585,32.2537,-4.1048
MnTl(CoBr4)2,24.751,22.0729,-2.6781
Si4TcW,31.3822,25.9044,-5.4778
Ti3Al5,5.0095,6.0681,1.0586
KBa2Nb,36.7242,31.4774,-5.2468
LiU2CoO8,15.735,16.8588,1.1237
Re2SnP2,53.6728,44.1686,-9.5042
ReSnP2,30.561,27.8524,-2.7087
LaTaPt4,73.9415,53.148,-20.7935
AlAuSe2,36.3491,32.2141,-4.135
ScCoIO2,72.6952,62.1812,-10.514
Na2Th(TlS2)2,48.253,40.7676,-7.4854
Al2AuSe,25.4232,24.1988,-1.2244
PaGa(CoO4)2,12.4414,13.1417,0.7002
In2NiTe4,30.4347,29.6357,-0.799
Al2Au2Se,25.9088,25.8524,-0.0564
BaPrPt4,58.0397,39.6379,-18.4018
AlAuSe2,36.7378,32.2141,-4.5236
NpCo2RhO8,10.7906,11.1746,0.3839
Ba2CuW,13.1103,14.3462,1.2358
AlAu3Se,39.1325,37.7995,-1.3331
Ac2CoBiO8,15.1915,17.6191,2.4276
AgAu2Br,34.7303,34.1512,-0.579
PaCo(AgO4)2,11.4214,12.0407,0.6194
Sr(HgPd)3,6.8973,8.4314,1.5341
AgAu2Br,34.6102,34.1512,-0.4589
Pa2CoCuO8,16.519,17.2999,0.7809
PmCo(AsO4)2,8.6289,9.4021,0.7731
LiZr2NpS4,60.3297,47.5424,-12.7874
AgAu2Br,34.5483,34.1512,-0.3971
CaSiSbTe2,34.5576,28.1128,-6.4448
K3Tl5Hg2,27.1636,27.2979,0.1344
Pm4Pr5Sc2,9.088,10.2598,1.1717
Hf3(ZnCo2)2,58.2353,40.7685,-17.4669
HfZnCo,55.0266,37.3726,-17.654
GdYCoHg,31.2597,28.2253,-3.0344
CdCo(TeO4)2,10.4407,9.7827,-0.658
Pm2PrSc5,11.0656,11.1218,0.0562
PrGd3F,17.5598,18.5365,0.9767
FeOsRu2,36.646,32.2537,-4.3923
Sm2Cu(NiPt4)3,63.8928,44.3907,-19.5021
LaCo4Mo,15.5087,15.3048,-0.204
SnRu2I,26.1056,24.8144,-1.2912
Si2PdRh2,29.1992,20.8368,-8.3624
SrLa2TiI,30.8572,22.8225,-8.0347
Sc2PbI,21.0658,23.7642,2.6983
YInHgBi,30.9875,29.4187,-1.5688
YZn2HgOs,21.8287,20.6452,-1.1836
Na2Sr2Ga,16.7512,15.8349,-0.9163
Sr(ScTc)2,95.4447,81.6661,-13.7786
Pr2DySc,5.7592,8.0291,2.2699
FeSnSb2Te,40.1372,32.9661,-7.1711
Y2VGaHg,48.1928,37.5983,-10.5946
BeBr2Cl,7.4444,8.8595,1.4151
ZrNp2O11,7.5105,8.6463,1.1358
Np2TiO11,1.0777,4.1734,3.0957
PaCoPdO6,8.4944,11.1546,2.6601
Hf2Sc3Ga2,45.4971,35.2749,-10.2222
RbPu2CoO8,12.6119,12.9782,0.3663
PrNpCoO6,2.4931,4.3677,1.8747
CsCaIO2,41.4164,34.5059,-6.9105
Li2TeSe,22.1589,19.5592,-2.5997
HfAlCu2,42.0635,31.4501,-10.6133
BeBr2Cl,7.0571,8.8595,1.8024
YTlHg,33.4856,30.9466,-2.539
YZn2Hg,13.5107,12.7052,-0.8055
MnSnPSe,42.9641,37.3249,-5.6392
InMo2I,19.2502,21.0869,1.8366
LiTe2Se,32.9269,29.1615,-3.7654
Cs3Ca(GaO3)2,25.3394,22.2089,-3.1305
YHgGe,19.4524,17.1434,-2.3091
YHgW2,33.6619,32.8041,-0.8579
NaScS2,38.4773,36.7501,-1.7272
Lu2TiCd,23.227,25.5221,2.2951
Sm4Rh3S,30.9251,25.0835,-5.8416
SrCo(TcO4)2,17.0617,15.1982,-1.8635
Sm(FeCo)3,17.4116,12.3528,-5.0588
Ni3SbTe,25.6423,22.6204,-3.0218
YHgI2Cl,40.0024,39.2536,-0.7488
Ni2SbPb,32.4098,29.9494,-2.4604
NiSb2Pb,41.963,36.3936,-5.5693
Y2HfHg2,43.8892,32.6198,-11.2694
AcGdNiPt,48.0715,42.4553,-5.6162
CeErPuZr,56.3439,54.085,-2.2589
MgCoNi2B,23.2784,17.0021,-6.2763
GdY2Hg,32.503,27.9377,-4.5654
PrGdPa4,49.2356,52.3328,3.0973
Y2ScHg4,15.055,12.1901,-2.8649
HfReAs2Se,63.2807,52.651,-10.6297
Mn4FeRu,80.8608,63.7745,-17.0864
K2TmAgF6,6.1001,6.7489,0.6488
Ce2Zn3CoCu12,12.5589,12.8535,0.2946
Pu2Tl3CoO9,19.3476,20.2803,0.9327
RbScAg2F6,6.3599,6.0051,-0.3548
BaSrSe4,33.7119,27.8396,-5.8723
Y2VHg2,41.2744,32.2349,-9.0395
Ac2La2RuPt2,62.4686,48.3706,-14.098
Cu2Ir2Pt,32.2891,30.468,-1.8211
CoBiRh2O,34.242,28.2121,-6.0299
Y2HgGe2,18.5699,16.1555,-2.4143
USnSe4,46.3077,41.702,-4.6057
SrAc(ZnGe)2,18.2321,19.9423,1.7102
HfRe2BSe,56.8515,46.9535,-9.898
SrCa4Sc,10.1911,8.3305,-1.8605
TlReAs2,28.2094,31.6548,3.4454
Co3AsIr,22.4387,20.2579,-2.1808
Cr2GaCoCu,21.774,17.3474,-4.4266
CaGa3CoCu,13.5854,12.1703,-1.4151
RbH4Os,3.003,4.4356,1.4326
Tl2ReAs,38.2288,40.176,1.9471
CdIn2Fe(CuS2)4,38.048,29.2088,-8.8392
CaVTe2,54.0973,47.062,-7.0353
BeReRh,21.6103,22.6006,0.9903
Be2ReRh,22.1955,21.9617,-0.2338
Y2ZrHg,49.9056,39.7539,-10.1517
YHg2Pd,17.5325,15.0149,-2.5176
BeReRh,21.3964,22.6006,1.2042
Tl2CdCuSb2,33.237,31.1199,-2.1171
Y2TiHg,34.9639,27.5889,-7.375
Nb3(CuS3)2,70.305,55.1681,-15.1368
Tm2ZnS5,37.7817,29.9776,-7.8042
BeCuRh2,30.2956,21.9335,-8.3621
Ge2Ru2Rh,21.5809,19.7297,-1.8513
CoTe2PdN,65.3644,57.9532,-7.4111
EuMnN,42.9095,37.8638,-5.0457
Cs2KBa2,11.2565,11.8259,0.5694
UTaSe4,42.1768,38.6136,-3.5632
LiTe3Se,35.376,31.3076,-4.0684
Li2MnAg,33.0805,27.2448,-5.8357
Ac3NiB2Pt9,66.4701,48.7749,-17.6952
Cs2LiReO4,20.9921,21.9382,0.9462
TlAgPt2,65.3935,49.3902,-16.0033
AcGa2Pt2Au,50.4889,41.8274,-8.6615
TiCr2Au,29.5279,28.7859,-0.742
EuZrHg2,31.3887,27.2137,-4.175
Li2MnAg,33.0345,27.2448,-5.7897
Ac4IrPtI2,53.4873,52.0928,-1.3944
Y2HgF,26.3259,21.9748,-4.3511
TaCo2Si,37.1635,30.5603,-6.6033
SiHgBr4,6.794,5.376,-1.4179
TaTcSe4,53.0981,46.1748,-6.9233
Co2CuAg,28.6373,23.8389,-4.7984
AcPmPPt,44.6633,40.3512,-4.312
RbTaNi2Bi,23.154,23.928,0.774
ZnCdPb2,33.1292,34.5474,1.4182
ZnCd2Pb,24.7441,25.6732,0.9291
NaTaCu2Pt,35.1443,27.284,-7.8602
Ca3GeSb,14.5438,12.6034,-1.9404
YHg2Pd,13.9088,15.0149,1.1062
YScHg2,10.1932,10.2152,0.022
YHgGe3,16.1793,14.6568,-1.5225
InGa2Tc,28.2013,26.9041,-1.2972
Ac2TiSb3Pd4,34.0502,31.6365,-2.4137
Tb2Th2Sc3,28.6964,31.7186,3.0222
In2TcBr,36.3681,33.4699,-2.8982
Ac2Si4AgPt3,47.9308,36.2249,-11.7059
Na2LaRe,32.5491,27.2231,-5.326
Y2Ga2Hg,18.5915,15.7292,-2.8623
KSi2IrSe8,38.9614,31.3586,-7.6028
BaAlC3,45.9284,31.1925,-14.7359
Mg3Zn2Bi3,21.5401,22.8279,1.2879
Y5HgPb4,34.9515,33.7215,-1.23
AlZnCoIr,31.0988,23.8527,-7.2461
FeSbAu2,45.0463,41.8129,-3.2334
Na3NbI,48.511,39.9537,-8.5573
Cd2CoAs,18.5062,17.3854,-1.1208
Sm2Y6Tm,12.5532,15.1087,2.5555
K2ZrNi,29.8227,26.8453,-2.9774
TiSbRh3,40.2831,29.6969,-10.5862
CdCoAs3,14.9886,13.9865,-1.0021
AsPb2,34.4696,38.9977,4.5281
TbSbS,41.681,34.5175,-7.1635
ZnCd6Sn,17.9996,18.6065,0.6069
TiSb2Rh,29.4339,23.3278,-6.1061
Er3ScAg2,25.7714,25.8346,0.0633
NpU4Pa,68.9392,72.0334,3.0942
Pr2HfSc,34.9805,27.2499,-7.7306
Co2SiW,17.2032,17.9403,0.7372
Sr2GaTe5As,28.6953,27.0759,-1.6193
Tm4Ni2Ru,15.4891,19.0792,3.5902
Sr2GaAsSe5,33.5011,29.0794,-4.4218
Ac2BeSi3Pt4,56.5326,42.5301,-14.0026
PaIr7,46.1557,49.9257,3.77
Rb(InCu)2,8.5204,10.0377,1.5173
Li2MnOs,35.8527,32.6162,-3.2365
LaAgBi2,42.9867,39.3806,-3.6061
PmTh4Pb15,53.6308,54.8347,1.2039
Na2Bi2Pb,42.0052,41.06,-0.9452
Hf2Zr2Sc3,63.9257,47.9838,-15.9419
YBe3Hg,11.9223,9.5693,-2.353
Yb6Cr,32.6139,32.305,-0.3088
La2GaTe5Au,35.6158,31.0867,-4.5291
Rb2BaGaI5,10.921,11.3541,0.433
La3(ScAg)2,32.5498,24.0156,-8.5342
Mg3Ta,11.42,13.6894,2.2694
Ba3YHg,22.6804,18.7764,-3.904
Sc2TaGa,67.8402,58.8514,-8.9888
CsTaN2,17.4092,19.107,1.6978
TlAgPt2,65.3488,49.3902,-15.9586
Y2CrHg,38.9676,30.4455,-8.522
NaScS2,38.1302,36.7501,-1.38
YHg3Mo,17.0293,11.996,-5.0334
LaGa2AgAu5,37.0789,35.067,-2.012
Rb(TmCu)2,12.1981,14.7558,2.5577
Ac2HfGe4Pt3,56.9223,44.9902,-11.9321
Y(HgTe)2,23.5404,20.2891,-3.2513