Formula,E_hull_DFT (eV/atom),E_hull_ML (eV/atom),Delta (ML - DFT)
CePm4Nd,24.9968,27.0095,2.0126
UMnNi10,27.608,26.8554,-0.7526
Hf5Sc2Sb3H2,72.6347,52.6592,-19.9755
CeNdSm4,25.1499,27.2256,2.0757
NdSm2H7,7.7076,9.1849,1.4773
La2HgAu2,34.9772,31.2472,-3.73
RbHf2Sb,78.7884,56.2499,-22.5385
AlS3Br,36.5003,28.0721,-8.4282
Tb4CeNd,26.0417,28.4421,2.4004
TbLuHf,68.0841,56.0842,-11.9999
Nd2Sm2YEr,18.8688,21.3553,2.4866
Ac2Dy(PPd4)3,20.6237,22.1533,1.5296
SrGe2Pb,21.2325,22.4589,1.2264
PrY2(Er2Sc)3,18.3665,19.4371,1.0707
Nd2SbPb,35.8771,36.7983,0.9211
YMoSe4,45.9966,34.2329,-11.7638
Pr3Y6ErSc2,9.9634,10.8143,0.8509
LuHf2Zr,104.9503,80.2695,-24.6808
TbLuZr2,64.4005,58.143,-6.2575
FeNi2Ag,33.2977,25.9878,-7.31
Sc(TaCu)2,63.5968,54.0467,-9.5501
BaH3Pt,14.0256,10.089,-3.9365
Zr2Cu2Sb,45.1005,40.2835,-4.817
TmMnFe10,16.975,15.6127,-1.3623
B3MoIr,15.7565,15.6653,-0.0912
AlReHg2,11.3407,12.9555,1.6148
ScBe2Cr,14.7758,12.2681,-2.5077
Nd4Sm2YEr2,24.5989,26.2434,1.6445
Pr2HfTl,46.5579,37.908,-8.6498
Li5Sc2Sb3H2,14.2454,12.5331,-1.7123
RbNaN2,12.7724,11.0623,-1.7101
CsTmP2Pt5,55.7662,42.017,-13.7492
VSiP,31.8613,25.683,-6.1784
MnGeRu2,35.0042,32.7823,-2.2219
BaNa2Pu2O7,14.1032,14.2663,0.1631
RbNa2C,29.1701,21.642,-7.5281
ErNbCo4,32.4505,30.0251,-2.4255
Cs2AgRhI6,25.9903,23.9263,-2.064
TbCu2Ge,7.1019,10.2602,3.1583
Pm(Sm2Er3)2,27.8225,29.7924,1.9699
Hg4PIr,12.9152,11.0983,-1.8169
BeCo4Pb,19.1659,16.6958,-2.47
ScBeCr2,17.1605,13.6754,-3.4851
AlNi4Cl,5.6558,7.4109,1.7551
Pm4ZnAg2,24.0754,24.1753,0.0999
Tm4RuRh2Au,40.2559,37.1878,-3.0681
TeAuI3,32.0702,31.7256,-0.3446
ScBeCr2,16.7391,13.6754,-3.0637
KLa2,35.2633,28.4762,-6.7871
GdYTlCd,27.913,30.2428,2.3297
P2IrAu,30.8767,28.8058,-2.0709
PRu3Se,20.645,20.389,-0.256
CsSBr,26.7804,23.0284,-3.752
ErLuAg2,31.061,29.4805,-1.5805
ZnCrTc2,51.7851,43.1559,-8.6291
Ti3Nb2V3O16,26.9347,21.5935,-5.3411
ScPa3Ge5,25.9598,26.9541,0.9943
Nd2SmYEr2,19.6331,22.0052,2.3722
LaGdYCd,28.4688,26.9575,-1.5113
LuTe2Pb,42.0637,42.1193,0.0555
Li2YMnSe4,37.199,29.7494,-7.4497
ZnCrTc2,51.8548,43.1559,-8.6989
CePrAu4,34.2431,36.3073,2.0642
Th3CoPd,23.9831,28.3442,4.3611
TbCeSm4,20.4734,23.3187,2.8453
LiMgBi2,27.8294,29.1068,1.2774
ScNi5As3,15.1315,11.383,-3.7485
KHf2Ta,79.417,58.9361,-20.481
Ti2Te2W,20.0905,21.4297,1.3393
NaThPt10,81.6606,60.368,-21.2927
Y2VGaSi,49.1004,39.696,-9.4044
LiTl5,42.4229,43.2611,0.8382
Mn3NiAs,83.9096,70.0732,-13.8364
NaPaNb2O8,29.2172,25.3086,-3.9085
Mn(NiAs)2,48.3109,41.1566,-7.1543
AcAlS3,40.2673,31.3785,-8.8888
Er(CuSb)2,21.4579,21.2533,-0.2046
BaB3Mo,7.9812,7.776,-0.2051
Ti2VCu,36.4333,31.3296,-5.1037
ReMoAs3,11.9169,14.8696,2.9527
LiVSe3,49.7921,37.3633,-12.4288
YB2RuCl,44.3739,38.3839,-5.99
RbLi2P,8.5528,7.7168,-0.836
BaSiSn,1.9135,2.5949,0.6814
Ni2PdC2,24.6459,19.6444,-5.0014
SiB2Mo,8.7258,10.087,1.3612
NaCa2Hf,42.4276,32.4214,-10.0062
Rh2Br,31.6931,25.501,-6.1921
Rb2ZrCoF6,13.9905,13.2478,-0.7427
PaPdRh,44.2769,42.4356,-1.8413
NdYEr,17.3975,21.8886,4.491
Li2NbSn,37.1857,32.4602,-4.7255
KRb6,3.6168,2.5358,-1.081
Sr2CaPrTe4,23.8008,22.7323,-1.0685
Ba2B2Mo,0.8735,1.8578,0.9843
TaAlSb4,37.4612,33.0633,-4.3979
NaAcZrO4,24.4122,24.1441,-0.2682
Na(CaSc)2,11.6043,8.501,-3.1033
ZrCdI3,37.6862,33.9561,-3.7301
NaIrW2,29.3831,35.4151,6.032
CsPPt5,68.1955,49.7107,-18.4848
ZnOsN2,44.2442,37.7292,-6.515
Pu6FeTe2,57.0489,57.2185,0.1696
Pr2SmPu,22.1358,25.1212,2.9854
TbB2Mo,10.7079,14.8246,4.1167
ZnOsN2,36.6945,37.7292,1.0347
ZnCoSb2,29.1345,22.0838,-7.0507
Co4BMo2,8.8826,11.3691,2.4865
BaSn3Pt5,50.5415,38.3123,-12.2291
NdY6Er5,21.237,23.1249,1.8879
NbMoW2,58.3604,55.648,-2.7124
ScGaNiRh,20.5181,17.8789,-2.6392
Ti3ZnGe,8.2617,8.8155,0.5538
ScTcPt,112.2691,89.9096,-22.3594
BeRe,3.7284,18.3553,14.6269
CeSmN2,3.0436,8.0347,4.9911
LaSmMnC,52.9107,42.401,-10.5097
Ac2AlZnRh6,43.1631,35.5391,-7.624
YTcB2,73.2541,62.6029,-10.6512
KScTc,87.4154,71.3631,-16.0523
PrAsPt3,53.9247,39.9065,-14.0182
TcGe2Sb,34.115,30.8302,-3.2847
Mn4In5Co2,47.2841,39.9368,-7.3473
LaAsPt3,65.166,47.9913,-17.1747
LiB4Ru,3.2852,5.8718,2.5866
K2TcPt,52.9195,40.9108,-12.0088
Sm3InAs,15.2,18.5214,3.3213
NaAuC2,50.2629,39.0923,-11.1706
Li2BeSbBr,20.0347,16.3474,-3.6873
NdY(ErS2)2,38.5799,32.0043,-6.5756
Y(TcB)3,59.6673,50.8944,-8.7729
Rb(BaSb)2,14.1456,13.182,-0.9636
Co(ReB)2,7.9058,13.578,5.6721
Pr2NiSnO6,18.5112,14.2964,-4.2148
Zn2CoSb,23.6692,17.3807,-6.2885
Zn2CoSb,23.6973,17.3807,-6.3165
Na2CeZr3N6,29.8842,27.1626,-2.7216
KCr4Pb,17.8104,16.7076,-1.1028
Rb(MgSb)2,18.9199,16.6665,-2.2534
RbBaSb,11.7187,10.8402,-0.8786
RbBaSb,15.0471,10.8402,-4.207
Nd4YEr6,26.4013,28.1925,1.7912
Rb2MgSb,12.8229,11.0253,-1.7976
Cs2BaGa,16.8927,15.4925,-1.4003
BeCo4Rh,16.8502,13.5815,-3.2687
BaSrTaN3,8.4622,9.0242,0.562
Na3Th(BiSe3)2,43.8867,37.9697,-5.917
CsBaGa,11.6392,11.3813,-0.2578
LaLu2Sb,40.4602,36.7133,-3.7469
Yb2Mn,52.9083,48.4725,-4.4357
Cr2Co2Si,2.1827,3.5828,1.4001
Rb2SbH2Pt7,56.2507,40.9621,-15.2886
HoAsRh3,36.5644,29.182,-7.3823
CaNdYEr,23.3337,22.5738,-0.7599
Sb4PAu,39.1618,34.2697,-4.8922
Ce2Dy(Y2Tm)3,21.0753,22.4539,1.3786
LaNd6Y2Er3,26.2975,26.2845,-0.013
Ba3CaRu,5.7046,6.102,0.3974
MoRuS2,30.3765,24.4462,-5.9304
BaSrRu2,12.4223,14.3665,1.9442
Ni2PN,16.4424,13.0668,-3.3756
NaBeNiO2,5.576,5.4651,-0.1109
SrMnFe3,37.3843,30.9411,-6.4432
NaThInPb,40.6817,41.4725,0.7909
Sc2CoTeC,26.627,23.24,-3.387
Sr8CuN4,10.3886,10.5058,0.1172
BaSrRu,10.3501,12.4384,2.0883
BaCa2Ru,6.8097,9.2841,2.4743
NaSmPt10,78.3021,56.8864,-21.4157
HoTcNi4,24.2052,23.8581,-0.3471
K2Na2Cd5Ag2,21.1019,18.9919,-2.1099
HfSnOs,68.555,57.1056,-11.4494
SrSiIrN,21.0764,18.1462,-2.9302
SrFeAu4,41.3787,41.0487,-0.3301
ScMnInRh,44.2,36.2831,-7.9169
NaCr2Br,23.5423,20.7009,-2.8415
GdYCdGa,17.7992,19.73,1.9308
Ho4CS3,41.4582,33.5974,-7.8608
Cs2RbAsI6,24.3578,23.7446,-0.6132
NaSrCd10,19.8879,19.1957,-0.6922
Ti3BMo,7.5228,9.4076,1.8848
YbAlPd,4.9602,11.3267,6.3665
CeEr2Hg5,9.8732,10.8862,1.013
PrNd3(SmY3)2,17.1205,18.3525,1.2321
VNiSe,42.0567,35.2253,-6.8313
LaPr2VN5,16.3162,10.3811,-5.9351
Na2HoPWO8,5.8766,4.7346,-1.142
Te2Pd2Au,29.2402,29.6792,0.439
NaNiPO4,0.2331,1.0777,0.8447
Li6La2Pd3,14.1271,12.2048,-1.9223
Na4Ni7(PO4)6,18.728,16.238,-2.49
Sm2SbAsRh6,32.6189,25.0814,-7.5375
Sb2PRh,35.8859,29.9193,-5.9665
SbP3Rh,22.5532,18.0425,-4.5108
SnAsSe3,42.6324,38.0697,-4.5628
PrHfBi2,62.0395,53.3265,-8.713
Rb2SiAg2,14.07,10.1358,-3.9342
PrNd3(Sm3Y)2,20.8461,22.045,1.1988
NaCeZn10,10.3489,10.8171,0.4681
FeTe4W,37.3501,34.4702,-2.8798
Pr2Nd3Sm6Y,19.5455,20.5637,1.0182
MgInF4,5.2916,5.6009,0.3093
TcPt,67.9171,53.428,-14.4891
Y(AlAu)2,29.4823,27.9787,-1.5036
Sc3Br,7.433,9.3303,1.8973
NaSr3Rh,14.6706,13.2747,-1.3959
Cs2NaIn3Sn4,21.4151,21.7461,0.331
Sc3Br,7.8889,9.3303,1.4414
Sc4Te2C,24.9957,21.3508,-3.6448
Cr2RuC,29.7004,28.6887,-1.0117
K(BRu)2,3.8015,8.4582,4.6567
NaSr2CuO,11.8029,11.6063,-0.1966
NiAgAs2,19.862,16.2413,-3.6208
NaNi2Mo2H3O10,12.3577,11.0953,-1.2625
NbZnOsRh,59.7258,51.4021,-8.3237
Ta3Pb,41.074,45.8044,4.7304
Ni3PtRh,32.8346,25.6842,-7.1504
YP2PdO,29.8146,24.0408,-5.7738
TbAsRh3,36.0663,28.9178,-7.1485
Ni4OsPb,20.2672,22.6917,2.4245
SmAsRh3,35.7572,28.5505,-7.2067
Na6Fe2C4SO16,17.5393,16.8484,-0.6909
Na3CoAsCO7,11.9643,11.3109,-0.6534
Ta3Pb,31.5991,45.8044,14.2052
NaTmZn10,10.8281,11.3463,0.5183
Zr3Re,74.3687,66.0933,-8.2754
Na4SrTa5O15,4.932,5.5161,0.5841
Na2SmPCO7,8.7073,7.8786,-0.8287
ZrRe,47.9794,55.7285,7.749
Sr2SbAsAu6,34.6176,34.1343,-0.4833
Ba3In4O9,10.7941,10.5774,-0.2166
Ba3Tb4O9,20.7213,15.1616,-5.5596
Na6Ni2As(CO4)4,14.0829,14.0432,-0.0397
ScTeC3,49.6833,35.3777,-14.3057
GaI2BrN,15.1738,14.9905,-0.1833
Ga3PdRu,18.7458,16.7383,-2.0074
Y2Ga4Co3,25.5427,22.8889,-2.6538
PaRh6,52.3705,40.224,-12.1465
YGa4Co,16.5368,15.6431,-0.8937
TcPt2,91.0845,69.0225,-22.062
PaRh,57.5342,55.6933,-1.8409
Tb2YErBi5,41.0377,42.3431,1.3054
CrSbPt4,68.66,50.6112,-18.0488
LaSn2Pt,39.1922,31.6876,-7.5046
LiReMo,23.6718,23.4578,-0.214
UMnB3,25.3219,25.4772,0.1553
TcRu2I,37.9217,33.9957,-3.9261
Ag2Pt2Au5,53.1264,46.7761,-6.3502
Tb3Y2ErBi6,37.8402,39.6563,1.8162
In2Ag5Sn2,26.4621,23.3894,-3.0727
KLi3Bi,13.3632,13.6083,0.2451
Y6Ga2Co,20.5068,20.127,-0.3798
Tb3Y(ErBi3)2,39.1472,40.9002,1.753
ZrAu4Cl,48.6233,47.4048,-1.2185
YBe4Ir,11.557,12.0742,0.5172
Na2Li3Sb2,19.6201,16.2182,-3.402
Nd2U(SeN)2,29.2104,28.9363,-0.2741
PrNd2Sm,17.5528,20.6793,3.1265
Ti2AlPt5Rh,50.4559,36.0469,-14.409
HoNiB3,0.5162,5.1791,4.6629
NaAgO2F,13.444,11.4827,-1.9612
PIrAu,39.9842,36.8406,-3.1436
Sr2HfZr,64.0137,51.2662,-12.7475
CeSm3N4,11.3894,13.6347,2.2453
P3Ir2Au,32.6577,29.0625,-3.5952
CoCu4Ru,19.3883,17.4443,-1.944
TaB3Ir,7.4022,13.2625,5.8604
Zr3Re4,64.8884,63.3418,-1.5466
NaCo2Re,20.5826,21.5647,0.9822
MoICl4,14.4329,10.4614,-3.9715
V4Ni2C,84.0448,64.8811,-19.1637
CaSb2W,35.1203,31.3861,-3.7342
BaSb2Se,30.3039,26.9818,-3.3221
YGa4CoNi2,35.3951,31.1596,-4.2356
YBPt4,85.2398,63.7465,-21.4933
AcYNiGe,61.1457,56.8379,-4.3078
Y2BeB2Ir5,53.0535,49.4847,-3.5688
Si2PRu,12.493,9.7712,-2.7217
Sc2FeTc2,90.9209,74.9181,-16.0028
MnPI2,39.9608,33.2643,-6.6965
SiP2Ru,8.4584,9.0715,0.6131
Nb(H2Ru)2,19.1424,17.1372,-2.0052
NaPr2IrO6,3.4167,3.004,-0.4128
Li2BeIn2,8.1321,7.233,-0.8991
Dy2GaIr,25.9707,29.0922,3.1214
AlCrRu4,13.2979,15.2347,1.9368
Hf3MnGa2N,52.0643,34.8523,-17.212
La(BiSb)2,45.3096,40.9527,-4.3569
SiP2Ru,15.4339,9.0715,-6.3625
AcSmPb2,48.2226,50.2082,1.9856
NaTi2Pt,36.765,29.1616,-7.6034
Eu2GaSn,21.4558,22.8254,1.3697
BeRe4Ir,34.5884,38.2571,3.6687
SiPRu2,19.9992,16.993,-3.0062
Eu2GaSn,21.2479,22.8254,1.5775
EuGaSn,0.0,4.9856,4.9856
ScTc,124.8051,103.2419,-21.5632
CsKNa10,23.5589,19.5871,-3.9718
Cd2Sb2Pb,33.5465,31.8531,-1.6934
La2MnIn2,43.871,34.877,-8.9941
GaCuI4,16.4512,16.9256,0.4744
PrHo(ThSb2)2,40.8987,39.1356,-1.7631
NbTlCl4,29.4385,25.6686,-3.77
SbPOs4,37.0474,38.1117,1.0643
GaBRu3,7.4468,9.4659,2.0191
SrZrFe,53.7655,45.3033,-8.4622
Tb4Dy3TmSe8,36.0613,32.019,-4.0423
EuGaSn,19.3937,4.9856,-14.4081
Ca2Pu2Bi2H,37.0374,38.9629,1.9255
OsBr2N,39.2338,32.9927,-6.2411
TiTc2RhS,60.5691,47.6971,-12.872
Ca5(AlHg)2,0.9194,2.6372,1.7177
Sr6Li2Ca,10.4895,10.3529,-0.1367
KMn2Rh,65.9343,51.8611,-14.0731
ZnRhAu,22.0325,22.2611,0.2285
TlNiCl4,11.7727,12.5969,0.8242
Ca2SbW,25.0942,24.1252,-0.969
Sr2NbNiO6,10.8222,10.6936,-0.1286
CaSbW,31.9372,30.6971,-1.2401
NaSiBr2,15.2479,13.6112,-1.6367
Sr2NpNiO6,2.8248,6.3156,3.4909
Be2PW,68.3563,58.6686,-9.6877
Ta2SbP,32.3168,32.2337,-0.0831
HoTmI,26.9485,29.0878,2.1393
AcNd2(ThAs2)3,29.5749,31.607,2.0321
YRe2SiC,44.1897,42.8926,-1.2971
Cr4ReSi,15.3114,15.6662,0.3549
K3(SeS2)2,35.7651,26.1099,-9.6551
MnTl2Sb,61.8584,55.5175,-6.3409
NdPt10Pb,80.6399,59.4088,-21.2311
Hf2In2I,64.7984,49.342,-15.4564
RbNbCl4,20.8529,17.5215,-3.3314
YTaBeIr2,41.5589,38.9639,-2.595
Li2VSe2,39.8517,29.7186,-10.1331
Rb4InCo2,6.4987,6.5291,0.0304
TaBr,10.8778,16.3757,5.4979
SrZn4Co,13.0486,10.7323,-2.3163
Rb2Pd(S4O13)2,16.0965,13.5264,-2.5701
Fe4SiBr,6.3565,5.4328,-0.9237
HfMg2NbRh4,60.1576,45.6654,-14.4921
BaSr2Te,16.8929,17.6497,0.7568
Nd2ThN3,9.6546,14.4837,4.8291
ZnGaRu,12.0671,13.3096,1.2425
Al2ZnTc2,35.6424,30.4945,-5.1479
Ba2SrTe3,21.5429,21.3751,-0.1678
H5(RhPb4)3,27.3498,26.2411,-1.1087
BaLi2Te,14.2097,13.5977,-0.6119
LiMn2AsO4,72.6526,64.6154,-8.0373
CrAuSe4,42.2275,35.3942,-6.8332
AcThNi10,15.7387,17.5293,1.7906
NaB2MoO6,2.8964,2.7752,-0.1212
Be3NiBi,12.6065,14.1222,1.5157
V2GeSe6,56.2355,43.8891,-12.3464
BaLa2Sm,32.2006,26.9271,-5.2735
Li2InAs,5.6978,8.5002,2.8023
Fe4CuP,25.3157,21.4584,-3.8573
WCIO2,44.333,35.8856,-8.4473
CaPb3S4,47.8231,40.8407,-6.9824
ZrBr2,39.3181,35.6527,-3.6654
YTe3S,39.2474,34.744,-4.5034
NiGe2Au,17.9464,17.6473,-0.2991
Mn2Al2Se5,48.9862,39.6182,-9.368
ZrBr3,27.7783,26.0024,-1.7758
Na2CrAs2,12.5465,10.8163,-1.7302
BaFe(WO4)2,11.162,12.1352,0.9732
Ca2LaPr,15.1879,12.8605,-2.3274
AlCrFe2,13.9949,12.1829,-1.812
CoOsW4,78.6527,68.6058,-10.0468
MnRe4W,49.9445,50.1842,0.2397
HfTi5Sb3,26.1442,21.9144,-4.2298
HfCuGe,45.9983,37.3651,-8.6332
HgMo2Se,20.1999,19.4839,-0.716
YU(TlS2)2,58.2383,51.4663,-6.772
SmGa2,9.0103,12.9827,3.9724
NbGa2,47.0472,40.1626,-6.8846
YLuSnPt,49.3376,39.5262,-9.8114
SrGe2Os,12.9877,16.6237,3.6361
AcLa2(PrAs2)3,16.3082,15.6427,-0.6655
BaNa2MnNb,61.4337,50.9557,-10.478
KCrMo2,14.0102,15.3595,1.3492
MnAu5,51.6491,50.0676,-1.5815
NdGa2,8.8565,12.7812,3.9247
Ce3TiBi5,32.9085,35.6135,2.7049
NaSr3Te,20.9794,20.0108,-0.9687
YAlOs,16.555,17.5871,1.0321
LiVSb2,54.6228,44.2447,-10.378
InSn2IrSe,31.9437,30.2965,-1.6472
Ca2BPdO5,21.0071,19.6421,-1.365
TaTlCl4,12.2585,14.0272,1.7686
Ca3Er3Ge2BO13,19.3428,16.4809,-2.862
Na2Li2Ca,9.6596,8.6907,-0.9689
In2FeOs,30.1358,26.4162,-3.7197
RbNaCr2,10.5895,10.9461,0.3567
Ca2Ac(BO3)2,20.8121,19.307,-1.5051
RbNa3Cr,19.1048,16.1836,-2.9212
Er5Ga2,18.6671,21.4908,2.8237
Tc(GeW)2,29.2276,30.9833,1.7557
Mn4CdS5,69.6224,53.1664,-16.456
ZrTi5Ga3,10.3152,10.7628,0.4476
YAl2Os,30.3891,27.6856,-2.7035
Y3AlOs,31.1309,26.9999,-4.131
NiBiPt3,67.3778,51.7832,-15.5945
GdScI,18.9672,20.5104,1.5431
Ho5Er3,24.1291,26.3465,2.2174
GeSbSe,34.1778,29.136,-5.0418
FeCoSb,33.9334,28.2123,-5.7211
Ga5(I4Br)3,11.1007,12.3989,1.2981
SrNpNiO6,3.3355,4.3446,1.0091
BaGe2Sb,11.6913,12.9703,1.279
Ge2Sb2Se5,38.5991,32.0344,-6.5647
Y2Pa(TeN)2,56.0073,50.6295,-5.3778
Pu5TlPb3,53.5198,55.1532,1.6334
BaGeSb2,20.2491,19.5236,-0.7255
BaSb2Se,33.8771,26.9818,-6.8952
Tb5PrY3,14.5359,17.3439,2.8079
Tb5DyY3,17.78,20.6134,2.8334
BaLa2Sb,36.7706,29.4342,-7.3364
Na2Mo2C,22.5173,19.43,-3.0872
Y2Rh,25.0349,23.553,-1.4819
Ge2SbSe3,30.394,25.2785,-5.1156
BaLaSb2,34.4022,29.3899,-5.0123
NaHf2TlSi,76.1473,56.4991,-19.6482
TmTh3Pb5,48.8905,52.2893,3.3989
Cd2NiOs,20.5954,22.675,2.0795
CaHo(BO3)2,4.5232,4.6303,0.1071
La3CeCoAu2,40.2538,34.3005,-5.9534
ZrCu(WO4)2,17.2378,18.1029,0.8652
Er5(TiPt4)3,42.1509,29.0748,-13.0761
ErPPt,19.8609,17.3667,-2.4942
Ba(YIr)2,35.5658,36.3826,0.8168
Mn4SiMo,71.2751,58.487,-12.788
Fe(SiTc)2,36.031,29.0531,-6.9779
Tb5PmY3,17.4792,20.2089,2.7297
LiLaSc2,16.0685,14.0111,-2.0574
NaCeAu10,43.2764,43.8027,0.5263
KAgF3,1.4504,1.652,0.2016
TmHfMgN3,31.2378,23.5384,-7.6994
Ba3HgPt,8.4044,6.0642,-2.3402
LiFeRu2,26.1225,24.3218,-1.8007
USi3Pd5,15.9588,16.6297,0.6709
TmPuMnN3,22.8802,24.4316,1.5514
YGe2Pd7Pb2,24.271,24.8566,0.5856
AlSbN2,12.3116,13.7186,1.407
RePCl,42.9155,37.0602,-5.8554
YTmN,43.1334,45.0314,1.8979
BiAsC,37.197,30.9504,-6.2466
TeMo2AsOs,31.5331,27.2487,-4.2844
BeTlSe,33.3335,31.0998,-2.2337
AgTe2,38.7468,35.1069,-3.64
Mn2InN,47.4225,40.7785,-6.644
CsZr(BO3)2,17.4615,13.2874,-4.1742
Na(Hg3O4)2,1.8666,2.4502,0.5836
Sr3LaF,21.5162,18.2165,-3.2996
Sm2TlRu2,20.1765,23.9083,3.7318
Sr4MnRe,39.2482,32.1413,-7.1069
ZnSnAsAu,18.0192,20.8841,2.8649
AsRuPt2,53.9085,40.7472,-13.1613
Zr2ZnCr,54.6465,47.0454,-7.6011
CdPbCl,25.3228,26.7055,1.3827
CrCuSb2,27.7986,23.6146,-4.184
LaFeNi2,38.4105,29.7745,-8.6359
ThBeAl3,23.8133,22.6935,-1.1198
Tc3W,79.3558,69.4201,-9.9357
TcW,0.6949,6.7254,6.0305
CaFePb4,46.5844,44.3704,-2.214
CaFe(SiB3)2,4.1046,2.8058,-1.2988
ZrCr,44.9557,42.0575,-2.8982
RbInSi,12.5314,10.7009,-1.8305
NaPaPdAu,39.0513,40.3,1.2487
CaNb3Sn,91.4444,73.6321,-17.8123
NaV2Cu,73.2368,57.1889,-16.0479
Ca3NbSn,36.1687,30.6964,-5.4723
YLuPt,44.746,38.8365,-5.9096
RbInCo2,5.5981,7.4905,1.8924
Pm3SmSb4,33.6776,31.9176,-1.7599
BeCrSb2,24.8669,21.7996,-3.0673
NaMnAs2Br,31.9599,29.4569,-2.5029
AlS3I,40.7044,29.2801,-11.4243
Be2CrSb,13.8417,13.0856,-0.7561
Sc3AlAg,4.8675,6.3856,1.518
CePrAs,9.3321,12.2633,2.9312
Ac3Si4Pb,37.8237,35.3331,-2.4906
NaMo2(P2O7)2,14.9887,11.666,-3.3227
Zr2MnGaN,60.2996,50.9535,-9.3461
AlInSe3,28.865,25.7015,-3.1635
Tb3(YTm4)2,27.3822,28.7185,1.3363
Ti3AlGe,6.7953,8.046,1.2506
CrOsI2N,37.8681,32.1887,-5.6794
Na2CaIn2,16.5451,16.287,-0.2581
K2Sb2P,20.0471,16.7428,-3.3043
SrAlAg3,19.1148,16.2328,-2.8819
CaTl4W,41.9323,43.0419,1.1096
TaPt2Au,58.8798,50.9701,-7.9097
RePt2Pb,68.2039,58.9649,-9.239
KYBeO2,20.7762,17.7058,-3.0704
CaYEr,22.801,20.9423,-1.8587
ScTa,79.0014,62.738,-16.2634
LaCe(ThSb2)2,47.4805,43.818,-3.6625
MnVCSe2,78.5236,59.376,-19.1476
InIr2Os,37.3553,41.3449,3.9896
BaYF6,17.6614,15.7878,-1.8736
AcTb4Tm,29.1872,32.087,2.8998
CaAc2SO8,21.9461,21.8868,-0.0593
Tc2P,54.1252,49.4293,-4.6959
TcP,22.5126,23.4996,0.9869
Al3VSe,37.9536,30.4437,-7.5099
PmReN3,35.9091,37.7383,1.8291
RePtPb,61.4304,54.7213,-6.7091
TaMnSi2,41.501,35.7055,-5.7955
HfScPd3,43.9144,34.1288,-9.7857
Ta2MnSi,47.077,45.0635,-2.0135
AlV3Ga,59.113,45.5458,-13.5672
TmLuGaAg,25.5202,26.3555,0.8353
SrSi3Rh5,31.0983,21.0278,-10.0704
VSe,54.4788,39.0047,-15.4742
ScTcTe4,70.3228,60.2653,-10.0574
SrTl2B,26.3684,28.451,2.0825
AlV3Tc,89.0594,68.9673,-20.0921
SbTe2NF,39.3848,34.0099,-5.3749
LiSc2Ti,4.4134,7.4027,2.9893
NaScS2,44.0013,36.2134,-7.7879
BaY2F,32.8948,28.5455,-4.3493
Nd3Sm2YEr6,26.1842,27.5747,1.3905
LuPuGaAg,36.0969,36.6191,0.5222
CuRhCl4,12.1488,10.0819,-2.0669
La2Cu(H3Pt)2,28.3361,20.7913,-7.5448
RbInSi,4.0291,10.7009,6.6719
Y6Si2SbSe3,33.8807,29.0407,-4.8401
SrWN3,16.7308,14.1924,-2.5384
Ga2Ag5,21.9077,18.1512,-3.7565
Pa5Fe2,49.0602,48.6109,-0.4492
Ba5Ga2,2.4332,1.7734,-0.6599
Ac5Ga2,44.3247,46.3327,2.008
Al2GeN,8.2398,8.3566,0.1168
NaInPb,29.5432,29.7403,0.1971
BiTeP2,26.5505,27.1141,0.5636
ZnTeW2,32.3704,34.4465,2.0761
Tm2BAsRh6,41.655,33.4624,-8.1926
NaTe3Os,38.9163,36.4015,-2.5148
Ba(SrGe)2,5.7142,7.6313,1.9171
CsPu(SbO4)2,25.0528,24.0339,-1.0189
V2Sn2Se,63.6476,50.7404,-12.9072
Pa2BRu6C,33.073,32.4924,-0.5807
LiW4Au,34.2466,37.6274,3.3808
Na2S2O3,7.6048,6.3924,-1.2124
RbInSi,9.223,10.7009,1.4779
RbInSi,9.2246,10.7009,1.4763
Rb2In2Si,9.3979,8.377,-1.0209
FeRhAu,32.2297,29.489,-2.7407
Cr2TcI,27.7716,24.3473,-3.4242
RbCo3Si,9.6789,8.5643,-1.1145
Rb3InSi,8.5713,6.7383,-1.833
Nd3AlZn,12.7921,15.1268,2.3346
TcP2Pb,32.0665,30.8521,-1.2144
TcPPb2,46.5545,44.1045,-2.45
HfZr3Al,89.1393,71.3259,-17.8134
ZrAlTe3,40.0063,36.3897,-3.6165
BeBi3Pb,44.6601,45.0338,0.3737
Rb3CoSi,6.3629,4.6227,-1.7402
FeRhAu2,36.0984,34.4141,-1.6843
RbIn,8.9097,10.146,1.2363
MnPRu3,31.7227,29.2628,-2.4599
TcPPb2,51.1904,44.1045,-7.0859
Al2AuN,14.0942,15.793,1.6989
MnNi(H4Rh)2,25.5642,20.9172,-4.647
SiNiOs2,26.3796,28.3669,1.9873
LaNiIr4,30.7759,33.498,2.7221
LiPtBr,41.9276,34.6595,-7.2681
BaYF6,17.6728,15.7878,-1.885
Na2Y(SnS2)3,41.498,31.2612,-10.2367
NaLaCu10,11.9396,11.591,-0.3486
CoNiC2,45.6316,32.3346,-13.297
BeC2,34.8219,29.4982,-5.3237
Na3ReO6,11.9603,11.2485,-0.7118
KGeP2C,19.7714,14.5943,-5.1771
Pr2SmSb,14.7582,15.6762,0.918
PrSm2Y7,15.2099,16.3643,1.1544
AlPb2Au,39.0098,41.6751,2.6653
AcAl2ZnCu4,15.1319,14.8334,-0.2985
FePbCl4,13.1401,13.1512,0.0111
Nd2SmYTm5,22.5589,24.9238,2.3649
RbZrSi,33.0257,29.2459,-3.7798
Pa5SiSb3,45.6833,46.0991,0.4159
Nd3Sm(YTm3)2,25.9026,27.3051,1.4025
ErPu3N4,29.7065,31.1088,1.4023
Nd3Sm2Y6Tm,19.8251,21.2264,1.4013
Na3ScSb,27.0876,21.4891,-5.5985
Nd3SmYTm,19.1446,21.8171,2.6725
Nd4Sm2YTm2,24.8865,26.5234,1.6369
CaInPb2,32.2266,34.2179,1.9912
HfBe10Rh,15.8621,12.5513,-3.3108
LuHfGaAg,54.01,43.4334,-10.5766
Ac3PmSi3,32.1108,31.7398,-0.371
In12P5Pb3,10.542,12.0114,1.4694
HfNb2HgH,85.2822,65.3452,-19.937
V2PbSe,89.964,72.7417,-17.2223
LaPr2Rh,22.6739,17.5238,-5.1501
CsZnP,8.6041,11.1226,2.5185
LaTaAl2,23.6834,22.9892,-0.6942
Ba3Li2(InPb2)2,23.9122,24.4346,0.5224
Pu5(HfH)2,61.003,52.3349,-8.6681
Y8Te4As3Pt,23.5043,22.46,-1.0444
Sr2Ti2Os,14.1806,16.0101,1.8296
VGaSe3,56.8273,44.4558,-12.3715
K2LaPaO6,11.3572,12.7266,1.3695
Mn3Tc,97.8159,79.4008,-18.4151
La2PmSb,42.7208,35.1674,-7.5534
LuPaCo,35.8259,39.0879,3.262
GaAuCl4,11.429,12.1795,0.7505
SmYAgPb,30.2727,31.067,0.7943
KNa3(SO3)4,15.8593,14.2172,-1.6421
La2BiSb,49.7959,42.8806,-6.9153
BaNaMg10,4.843,4.4406,-0.4024
NaLaPt10,80.4925,57.7351,-22.7574
RbMn4P3,54.2672,43.2778,-10.9894
TcAsIr2,47.9571,46.7427,-1.2144
S2ICl2,27.7271,21.2551,-6.472
LaBi2Sb,51.628,47.6834,-3.9445
La3BiSb,50.8163,41.3839,-9.4323
Sr2YReNi,58.1124,46.9716,-11.1408
HgTeP2,12.9633,12.814,-0.1494
AlReHg,14.8848,17.422,2.5371
YAuN2O,35.5297,32.0273,-3.5024
YGeSO2,32.9511,27.5798,-5.3714
NiSbAs,17.6482,15.1163,-2.5319
NiPtRh2,48.4612,36.4594,-12.0018
SrIn4Co,16.7543,17.9379,1.1836
ReAg2Pd,26.5521,26.9232,0.3711
CsUTe2Pd,33.0586,34.036,0.9774
Pr10Sn4N3,7.5964,6.3921,-1.2043
PmYGeIr,24.3476,25.2563,0.9086
CaMgPb4,36.2847,37.076,0.7913