Formula,E_hull_DFT (eV/atom),E_hull_ML (eV/atom),Delta (ML - DFT)
CaYC2,45.0371,33.9663,-11.0708
ZnBTe2N,30.0155,26.2052,-3.8103
NaPr2Al,5.0275,5.6736,0.6462
SiBPN4,8.9008,5.7867,-3.1141
SrSc2Be,10.78,9.0026,-1.7774
GaSe2N,27.0214,23.252,-3.7694
Re3(Mo3W)2,18.9526,21.2004,2.2478
SrYPd2,24.7502,22.9409,-1.8093
ReNiIr2,45.4892,45.72,0.2307
Na2Tl(SbPd)2,32.7721,28.4457,-4.3263
LaSb3,41.0871,30.6753,-10.4119
SrScBe2,12.3741,8.5393,-3.8348
Ca2Y2C,32.2618,24.5724,-7.6894
Zr3(H3C)2,37.8499,29.2266,-8.6233
YZrSc2,30.6236,27.8529,-2.7708
NdSb3,34.5162,29.2661,-5.25
YNbIr3,59.2179,54.7779,-4.4401
Si2AgRu2,16.8618,13.13,-3.7318
Sr2ScBe,13.1539,10.8376,-2.3163
Ca2YC2,37.3745,28.2483,-9.1262
SiHg2,5.211,3.2896,-1.9214
Be2IrI,27.0499,29.8651,2.8153
Ac6Ge2C,46.3674,47.2539,0.8866
RbY(BC)6,56.0873,41.6053,-14.4821
CsPrZnO3,12.8446,8.6456,-4.199
ZnGa3Ru,10.6919,11.1648,0.4729
GaBiRu3,24.1495,25.3383,1.1888
Ho3TmCd4,20.6727,23.1349,2.4622
U6Ga2C,45.0039,46.1764,1.1726
Ac3(AlPt)4,50.259,41.062,-9.197
Y3SiC,42.3998,34.3317,-8.0681
LaTi3Pb,24.9756,22.5625,-2.4131
Ag5PtAu2,39.2233,32.766,-6.4573
PrTlRu,27.9422,30.6372,2.6951
CuBS2N,33.0139,23.1428,-9.8711
Ag(PtAu)2,61.2315,48.8807,-12.3508
Ag7Pt3Au,48.7541,36.6065,-12.1476
Li2TaPb,22.9878,22.8717,-0.1161
LiY(ScHg2)2,8.2616,7.8931,-0.3685
TiSi2BN,8.6416,6.77,-1.8716
Li2CeScIn4,16.0037,15.1559,-0.8478
VIr4Ru,55.7637,51.7001,-4.0636
Na2Mo2Ir,24.0126,20.3959,-3.6167
BeAg2As,22.3119,17.6912,-4.6207
CaC2,42.5082,29.2705,-13.2377
VRuRh4,64.0359,48.3354,-15.7005
Rb2TlI7,20.9646,21.1818,0.2171
Ac2Pr2Nd,28.8598,31.7578,2.898
Pr5Er4Sc,10.0462,12.903,2.8567
LaTeRh,47.0727,36.3064,-10.7663
NaPrNd,14.9276,15.641,0.7134
ZrFeIr,47.0234,43.1131,-3.9103
Pr2NdHo2,14.3426,17.6028,3.2603
Cs2GeC,31.2944,26.6512,-4.6432
TaFeSe2,33.3586,30.4147,-2.9439
Na2RuPbO5,10.3172,10.8914,0.5742
HoZr2Tl,68.9932,60.5183,-8.475
PaVSe4,63.8202,53.0083,-10.8119
Th6Sb2As3Pb,46.3672,46.8061,0.4389
ErVFeGe3,24.6955,22.5317,-2.1637
RbBaI2,10.6758,11.3673,0.6915
BaSrLa,21.8869,17.0233,-4.8635
Pr2NdTl2,19.3796,22.3025,2.923
ZrTlRe2Au,57.5093,54.2984,-3.2109
Li2TaTl,22.9053,24.2741,1.3689
Y2TeC,34.1347,30.6652,-3.4696
Ba3HfGe,31.2263,23.2255,-8.0009
YCu(BC)6,56.4949,42.0668,-14.4281
ZnSn2Bi,22.9545,25.5159,2.5614
Tl2GeIr2,34.847,37.1218,2.2748
TiBiTe3,38.1337,36.3995,-1.7342
TmAl2Pd9,15.6768,17.5917,1.915
AcAlInPt,43.4865,38.8295,-4.657
YZr3Al8,32.2593,26.6566,-5.6027
Cd2AsPb,22.8473,25.3169,2.4696
Na2Pd2PtSe6,41.6655,32.7677,-8.8978
TiI2,16.3708,19.5987,3.2279
Li2TcAg,31.4405,28.5265,-2.9141
K2RhW,29.5083,25.6283,-3.88
YHoCo2,26.102,24.7068,-1.3952
LiYHoCo,31.343,28.2687,-3.0744
CdFeGe3,10.7229,11.6907,0.9678
Ce(NdHg3)2,7.6357,9.1051,1.4694
TaBeV,72.9404,59.2464,-13.694
In2AuC,38.0096,34.0766,-3.933
YHo3Co2,25.4532,24.6522,-0.8011
YTe2C,49.8678,42.1336,-7.7341
Li2TcRu,27.9992,26.0115,-1.9878
Rb2Ag2Pd,16.8431,14.8483,-1.9949
NiSb,9.8603,8.873,-0.9873
NiSb,0.0,8.873,8.873
YTe2Rh,36.3852,32.3873,-3.9979
SmY(MgCd2)2,15.2705,16.5805,1.31
TbPuSnPb,42.6531,45.4152,2.7621
LuScVRh,53.806,45.2005,-8.6056
Pa2TlNiO8,14.9221,17.3758,2.4536
Rb(BaSn)2,8.5435,9.2807,0.7371
Tb2CeNd6,25.1876,28.434,3.2464
CePdRh,23.0421,22.1751,-0.8671
Ba2Sr2I,7.6134,8.5475,0.934
Li2CdTc,28.448,26.102,-2.346
Cs3(NaBi2)2,37.5021,37.0085,-0.4936
Sm6Te2Ru,27.0968,27.9279,0.8311
NaThAsSe,50.7014,49.0633,-1.6381
Rb2Sn2Pd,14.6493,13.4694,-1.1798
Fe(NiAg)2,33.409,25.5803,-7.8287
BeAlSe,20.5114,14.7164,-5.795
ZrFeTc2,71.0421,61.7,-9.3421
FeNi3Ag,28.6394,22.1549,-6.4845
Rb2Bi2Pt,40.2044,34.9848,-5.2195
Ce(SmDy3)2,22.1138,25.6461,3.5323
KC2Br,35.5158,25.7231,-9.7926
ZrFeTc2,71.0289,61.7,-9.3289
ZrFeTc2,70.9395,61.7,-9.2395
TbPm6,20.797,24.3689,3.5719
NaNbBiPt2,81.2718,62.6381,-18.6337
CsGaO2,25.551,19.581,-5.97
Y2TeRh,28.9905,26.0417,-2.9489
Ta2FeSe,30.4069,31.4831,1.0762
LiAc(AlPt2)2,54.0711,39.9983,-14.0728
Y2TeRh,28.7455,26.0417,-2.7038
GaBiRu2W,44.1467,37.6068,-6.5399
Ta2SiSbN,27.4601,25.5753,-1.8848
Ce(Sm3Hg)2,19.2113,21.3361,2.1248
ZrFeTe,46.7235,40.0785,-6.6451
ZrFeTe2,45.9563,40.5157,-5.4406
YSc2Pb,18.8758,22.0958,3.22
PdRu3Au,24.6872,26.4088,1.7216
Rb2MnRuBr6,27.2356,23.7623,-3.4732
Tb6CeEr2,22.3419,26.1378,3.7958
NiBMo2,19.2762,20.2882,1.012
LiAc2Nd,38.6001,41.1767,2.5766
Tb2CeTh6,46.4293,50.7338,4.3045
Tb6CeTh2,30.0809,34.0836,4.0027
NaAlS2,30.5139,23.701,-6.8129
ZrFeTe2,45.2284,40.5157,-4.7127
NaTa3Mo,32.5138,33.8135,1.2997
TaSeN3,18.9555,17.7694,-1.1861
Ta2MoIr,35.7097,38.0591,2.3494
NaTa3Mo,31.4207,33.8135,2.3927
Na(TaIr)2,27.927,33.165,5.238
NaTaMo2,16.9328,21.758,4.8252
YHo2PaCo2,30.9095,31.1767,0.2671
Rb2Zr2V,62.1628,47.6803,-14.4826
Na3(CoSi)4,14.1371,11.2661,-2.8709
Th4SbAs2,39.018,41.497,2.479
EuErSi,25.5335,25.4407,-0.0929
Ce2GaN,7.269,13.1271,5.8582
ScS2,51.0281,44.8977,-6.1304
Sc2BPb,15.7652,19.9417,4.1765
Be2InMo,13.377,12.0213,-1.3557
BeInMo2,18.0895,16.0553,-2.0342
Li2TcOs,34.1208,32.479,-1.6419
I3Br,19.392,19.9005,0.5085
In2SiPt,36.1079,28.2232,-7.8847
Rb2SnBi2,23.7767,24.9323,1.1555
BeInMo2,17.8557,16.0553,-1.8004
TmFeSb,38.1233,34.6281,-3.4953
CeInPb,32.1788,34.367,2.1882
Na2TaSe5,40.2542,33.6577,-6.5964
La(Sb2Ru3)2,29.5859,25.6529,-3.933
La2Pm3Zn2,27.4404,24.1882,-3.2522
BeIn2Mo,17.4415,16.7224,-0.7191
NaAgSnTe3,30.2914,27.4766,-2.8148
Li2TcIr,34.4392,33.4206,-1.0186
Ce6ThPa2,39.0165,42.8808,3.8642
Ca2PtF,26.21,19.2486,-6.9614
AsCSe2O,46.8366,37.8088,-9.0278
CsLiOs,18.4673,21.3666,2.8992
BaSrLa2,29.4087,21.6628,-7.7459
Tb5Nd4,25.7486,28.1501,2.4014
C2Se,51.1229,40.8218,-10.3011
Nb3Al2N,46.176,38.56,-7.6161
BaLaI2,23.4105,20.0226,-3.3879
MnMo3Br,32.8073,29.9439,-2.8634
CaTb2PmTl4,35.4091,37.5893,2.1802
Cs2(NaHg2)3,10.7475,9.4519,-1.2957
Th2In3Ru,28.7557,32.5543,3.7985
Ac3(LaZn)2,44.5369,41.3176,-3.2193
KMg2H8Se,7.4695,5.7752,-1.6943
TaAlCd2,19.8032,22.2723,2.4691
ZrSc2SiBr,41.7441,33.7538,-7.9903
La2Nd3Zn2,27.3823,23.9628,-3.4195
NiOsRh2,29.9429,28.5638,-1.3791
YB6C6F,56.5373,41.7231,-14.8142
ZnInGa,5.3033,11.5929,6.2896
AlOsPt2,49.4441,38.5308,-10.9133
CsScNb3,92.8268,76.2526,-16.5743
Cs2RbHg2,9.7716,9.815,0.0434
TiNbNi4,30.8977,27.715,-3.1827
RbSiSb,16.8365,12.5158,-4.3207
Rb(InSn)2,13.3986,14.6253,1.2267
KPtBr,29.2537,20.8836,-8.3701
NaY(BC)6,57.5283,42.7854,-14.743
RbNaSr2Ag,16.9988,14.9214,-2.0774
Ac2Sm(BrN)2,24.2383,26.3758,2.1375
LiY4Ag5,20.9639,19.2702,-1.6936
As2PbBr,28.3398,26.838,-1.5018
TaCoSe2,55.9952,42.9539,-13.0412
Rb(InPt)2,39.6762,29.2585,-10.4177
PtBr5,26.0321,22.8561,-3.1759
Ca(Ac3Tb)2,49.9789,51.5717,1.5928
V6Sb2Ru,97.6939,76.0337,-21.6602
PtBr,52.7448,38.5877,-14.1571
Zr(AlAu)2,34.2889,33.025,-1.2639
AlOs2Pt,44.096,40.1569,-3.9392
ZnNi3,1.6654,5.8858,4.2203
NaPrSm2,17.7224,18.051,0.3286
Na2ScPaO5,39.76,36.3666,-3.3934
PtBr2,35.9901,31.1886,-4.8015
KBaV,47.9684,37.659,-10.3094
TbMnNb,81.6477,69.4546,-12.1931
Os2PbCl,36.4407,38.654,2.2134
PrBr,0.0,2.2171,2.2171
BeAlP,24.1616,19.8495,-4.3121
Ag2SbRh,35.356,30.8249,-4.5311
Rb(TlIn)2,28.5787,29.1032,0.5245
Ba2ScMnBe,24.3917,19.0736,-5.3181
NpIn2Fe,23.724,24.9995,1.2756
PmY2(ThTe2)3,40.7881,40.2847,-0.5034
BaLi3Re,18.5805,15.5957,-2.9849
V3CdSn,86.6435,68.9474,-17.696
AcSi2Pt4Rh,62.1042,43.9241,-18.18
NaNbTe2,57.7186,50.9105,-6.8081
SmLuAg2,29.9979,28.9201,-1.0778
Rb2PtSe2,33.2063,24.1614,-9.0449
ErTh2ZrSc4,35.0721,34.7818,-0.2904
KZn2,7.9335,8.579,0.6455
YAg2Rh,31.2326,25.4996,-5.733
PaZn2Pb,33.8332,35.8021,1.9689
Ag2AuSe,39.6908,34.9486,-4.7422
BaNbGaO4,29.874,24.3959,-5.4781
AcPrSb,34.2812,33.7361,-0.5451
Rb2NiAg,10.9707,9.4348,-1.5359
SrUGe3,16.3674,18.6641,2.2967
Os2CO,28.359,28.1365,-0.2224
BaYHg4,18.1792,15.2993,-2.8799
Rb2Sc2Ag,7.4574,7.2849,-0.1725
K(TcMo)2,38.3413,37.2861,-1.0553
K3Zn,11.0631,10.4635,-0.5996
VMoBr2,42.3993,36.6737,-5.7256
NbCr3Sb,43.9752,35.6427,-8.3325
YNb2Te,85.1233,72.6793,-12.444
KTc3Mo,64.2948,55.3549,-8.9399
Rb2AsCl6O,11.3538,10.6489,-0.7048
LiThRu4,21.8617,24.8173,2.9557
SnGeSe4,32.8342,28.6992,-4.135
KTcMo2,35.7597,33.1431,-2.6165
TlIn3(Te4Pb)2,39.2676,37.7364,-1.5312
Ta3FeSb,41.3651,39.3358,-2.0294
MnZn2Cd,33.6215,29.848,-3.7735
Si(AgPb)2,33.3396,30.5303,-2.8093
Ac4PtSe2N,54.2005,51.5225,-2.678
CoRuBr,20.1736,18.6525,-1.5212
PmGa2Pb,23.1322,25.07,1.9377
NaHfOs2I,56.6071,47.6987,-8.9085
FePbI2,27.3093,26.3848,-0.9244
Na3(TlIn3)2,26.7782,25.8064,-0.9717
Ta2CrNi2,30.1662,26.1218,-4.0445
CaCo5H12,4.3054,3.49,-0.8153
Na(ZrTc)2,73.9953,61.6673,-12.328
GdYCu4,20.1561,19.3663,-0.7898
Sc13In2,7.6065,8.3691,0.7626
Na3(Tl3Sn)2,35.7584,35.2747,-0.4837
ZrReAu,62.0865,58.4059,-3.6806
La3Y(TmAs3)2,22.6762,19.7686,-2.9076
Re2AgAs,30.786,32.6954,1.9095
La5HIrAu2,37.9102,29.2616,-8.6486
BeAl2P,30.0656,23.0937,-6.9719
LaPrBr,20.218,14.385,-5.833
Zr2ReAu,71.1001,62.9838,-8.1163
LaPrBr2,17.4003,12.9726,-4.4277
ZrRe2Au,56.4036,54.0605,-2.343
ZnCu2Si,10.0497,10.4188,0.3691
Hf2InBiN,73.988,57.5914,-16.3966
BaSrTa,28.7444,22.2572,-6.4871
YHfInAg,53.1483,42.0543,-11.094
La3(PmZn)2,31.2968,25.1723,-6.1246
ScTlSn,22.399,21.9628,-0.4361
Tb3Sm(Y3Th)2,26.6956,28.3964,1.7008
Ba(PbCl3)2,12.9552,13.97,1.0147
Ce5O4,13.2268,13.8697,0.6429
Tl2Ge4Au5,34.1478,35.2154,1.0676
CrCuNi,21.5108,22.6087,1.0979
MgH6PdPt2,22.8748,17.0165,-5.8584
Mg2CrH8Pd,6.0016,5.5921,-0.4095
Tc4IrBr,72.0159,63.4033,-8.6126
Ca(LaAg3)2,32.6577,24.9972,-7.6605
Ac2AsPPt6,70.5188,52.1578,-18.361
AcSn2Pt,31.8893,29.2592,-2.63
Tl3ZnIr,44.9816,42.7209,-2.2607
Ba2BeNbO6,13.5181,12.4975,-1.0207
Cu2S3,32.6902,24.2861,-8.4041
NaHfCd2,51.7431,40.6752,-11.0679
In2GaSb2,24.45,21.4091,-3.0409
BaTc,41.7306,36.681,-5.0496
Ta2Mn3FeO9,53.7769,49.7128,-4.0641
TcGePb3,53.2154,50.8329,-2.3825
NdNi,15.1992,19.1765,3.9773
SnI,21.9084,24.1394,2.231
NaHfCd,50.4105,39.4687,-10.9418
TlZnIr2,40.8937,39.605,-1.2887
Er3Tm3Tl2Rh,36.3354,36.8844,0.549
Ba2SrUO6,0.272,1.9634,1.6914
ZrSc2W,37.2057,35.2961,-1.9097
Fe2As4Pb3O16,7.6397,8.0889,0.4493
Nd3Sm(Mo4O15)2,16.8606,15.3189,-1.5417
RbAcPtO4,15.1573,13.6138,-1.5435
Pb2WI,38.4884,41.5112,3.0227
Al2MoIr,20.8172,21.204,0.3867
Rb2Ac2PtO6,18.8315,17.5805,-1.251
Pr3Se2S,21.2487,16.4542,-4.7945
TiP2Ir,12.8114,14.4191,1.6077
Rb2AcPtO6,14.9838,13.3558,-1.6281
Sb2MoAu,33.2351,30.0696,-3.1656
Ca(Ac3Co)2,43.516,44.7483,1.2323
Ca(SmCu3)2,11.2867,12.2472,0.9605
ReHgSN2,71.4745,63.3417,-8.1329
Ca(Nd3Co)2,16.3954,16.9208,0.5254
TlPtC2I,59.5719,45.0804,-14.4915
Ca(HoCu3)2,12.0008,12.913,0.9122
Be2AlSi,27.0419,20.6276,-6.4143
MoC3Br,45.1691,32.3779,-12.7912
Ca(ThCu3)2,20.4443,21.7407,1.2965
CaTa3Pb,35.5475,37.3576,1.8101
K2BiAu,28.7397,30.3528,1.613
Sm3DyPb3,32.3692,35.7601,3.3909
BeAl2P,30.0745,23.0937,-6.9808
Y2Ga3Pd,12.6612,12.6221,-0.0391
Er2PuMg,33.6189,36.3444,2.7255
BeAlP2,19.7197,16.0511,-3.6686
Tb2SmAg5,29.129,26.2006,-2.9283
Tb3SmAg2,27.7185,28.0113,0.2929
AlMoIr2,24.2875,27.9403,3.6528
Ca2MgSi,11.7146,9.5177,-2.1969
Re2Te2W,41.8834,42.6923,0.809
MnMo2PdC,44.6304,35.9654,-8.665
TbSmAg,23.3857,24.9005,1.5148
NaPm2Sn4Pt3,41.902,33.5109,-8.3911
Y4Ru2Rh,28.0585,24.6093,-3.4492
Ba3Be,0.9189,0.5766,-0.3423
Re2HgMo,27.2272,28.431,1.2038
BeAgRh,28.2472,22.2243,-6.0229
Ti2Ni2H3,7.4097,6.9449,-0.4648
Si2NiPt,31.0159,23.8824,-7.1336
Gd2YRh,30.0846,29.378,-0.7066
GdYRh,30.3693,27.5301,-2.8393
Y2SnRhC,47.1037,34.7301,-12.3736
Li2ReSb,21.7384,21.1022,-0.6362
Na4LaY3Te8,31.7001,28.1878,-3.5123
NaNpTe3Pd,33.7498,32.9855,-0.7643
Rb2NaPdF6,9.434,8.9177,-0.5163
Zr5Sc3,63.3633,50.5673,-12.796
CdCuP3,12.5504,11.4472,-1.1032
CsFe3(As3O10)2,4.2337,3.3145,-0.9193
TaCoSe2,56.1592,42.9539,-13.2053
Ca(HoGa3)2,11.8935,13.7107,1.8172
Ca(NdGa3)2,11.0321,12.8396,1.8074
CaBe4Al,16.5122,11.1881,-5.3242
Al2MoIr,20.7598,21.204,0.4441
KSb2As,27.9005,24.1833,-3.7172
Nb2SiSn,81.8385,66.438,-15.4005
Tm6Th2H,35.0899,36.3688,1.2789
Y2BePb,18.8048,20.1737,1.3689
GaCuSN2,17.313,13.601,-3.712
FeNiAg4,37.3307,28.508,-8.8228
CoP4,8.1768,7.7861,-0.3907
Be2AlP,18.8869,15.5199,-3.3669
Sb2CSe,45.9336,34.7038,-11.2298
Ca(GeI3)2,17.2003,17.7823,0.582
GaCuNF2,7.6489,6.1161,-1.5328
AgTe2Mo,30.6222,27.7787,-2.8435
KCoC2,39.6578,28.8694,-10.7884
SrZr2V,80.0667,64.3897,-15.677
AgTe2Mo,35.2148,27.7787,-7.4361
SrTe3C,40.3123,34.4683,-5.844
Ta2CoSe,53.1907,43.5461,-9.6446
RbMoBr6,10.0574,11.367,1.3096
Na2YF4,8.8726,8.1944,-0.6782
Ca(AcHg3)2,14.2373,15.4487,1.2114
Cs3Tm(SO4)3,8.441,7.6069,-0.8341
AcSiPt2,63.6335,48.2633,-15.3703
TeIrPt,58.5989,50.6273,-7.9716
Cs3BaSb,24.2009,22.1439,-2.057
Na2Ni2Te,20.8261,19.5694,-1.2566
LiYBeAg2,19.2362,14.3698,-4.8664
NaNiI4,20.104,19.5638,-0.5402
Li2TaSb,20.8312,19.8027,-1.0285
YHfAgOs,58.4796,48.5143,-9.9654
Mn(AgAu3)2,49.4874,46.7957,-2.6916
Mo2PbBr,31.4849,30.4502,-1.0347
KCo2C,25.5562,20.575,-4.9811
BeAlP2,19.3995,16.0511,-3.3484
Tb(CeRh)2,27.4137,25.0047,-2.409
CaLa2W,37.389,29.8795,-7.5095
CaLaTbY,29.3971,23.4886,-5.9085
TiSb3As,36.5709,27.2223,-9.3486
CaLaW2,33.8151,33.5035,-0.3116
AcSm2Pt,33.8133,31.1008,-2.7125
BeCrW,20.2691,21.0777,0.8085
Bi3RhC,56.2485,49.359,-6.8895
Sm5DyPb5,37.4455,38.856,1.4105
ZrPtNF2,41.2832,32.7592,-8.5239
Na3(TlPb3)2,44.6511,44.1513,-0.4997
Ce(NdRh)2,27.1824,26.6589,-0.5236
LiY(MgH4)2,3.566,3.1932,-0.3729
BeAl2P,30.0918,23.0937,-6.9981
AcSb2PtRh5,54.1031,41.0137,-13.0894
Ca(PrI3)2,14.1036,13.9627,-0.1409
Ca(Sm3Tm)2,24.1096,27.0106,2.9011
Ba2CaIn6,13.404,14.2315,0.8276
Sr2AcPt,44.8887,39.3984,-5.4903
KTa2As,24.9281,27.0536,2.1255
TeWC3,56.3878,43.2183,-13.1695
SrZnPb,21.61,23.9466,2.3366
Ca(PmZn3)2,11.5022,12.3804,0.8782
Cr2Ni2Ru,26.677,26.5782,-0.0989
ScFe,0.0,22.1284,22.1284
CaMg2Re,9.9992,13.0805,3.0813
CaReI3,23.0821,23.5285,0.4464
Al2AgPt2,37.2504,26.8364,-10.4141
YCl3O,33.6127,33.125,-0.4877
BeInRh,23.0394,19.8996,-3.1398
FePC,20.4987,16.4699,-4.0288
Fe3BSb,19.1535,16.7258,-2.4277
PrSbOs,19.8801,22.1781,2.298
Ta2RuPb,35.906,40.1102,4.2042
Sc2MnAl,28.6684,25.3066,-3.3618
Ca2LaRe,25.8651,23.1459,-2.7192
Ta2RuPb,35.7686,40.1102,4.3415
CoRu2Pb,25.4654,27.1804,1.715
CoRuPb,28.5348,29.2135,0.6787
Y(InRh)2,25.5028,21.4636,-4.0392
MnAg2Te,51.233,42.6052,-8.6277
NbOsSe2N,73.4011,59.2006,-14.2005
NbSeN2F,40.5093,33.1549,-7.3544
MnAgTe2,54.0135,45.7834,-8.2301
CaLaRe2,34.863,32.3481,-2.5148
Ce(PuRh)2,53.0594,49.9515,-3.1079
CaLaRe2,35.0336,32.3481,-2.6855
LaNbN2,38.7264,30.4862,-8.2402
BaNaSe2Br,25.8484,21.2183,-4.6301
Y2ClO,61.5913,57.9228,-3.6685
ZrBe3,19.7429,19.7131,-0.0298
Ta2(NbMo2)3,54.023,49.52,-4.503
Ca(Ac3Os)2,47.4053,52.0049,4.5997
Y8C3S,37.7959,31.0379,-6.7581
Sr6Hg2Rh,11.6774,11.4942,-0.1832
Ca(PrSm3)2,12.4818,15.0665,2.5847
Mn3AgTe,75.229,61.451,-13.778
Ca(PrNd3)2,12.4346,14.0134,1.5788
Ca(Pm3Pr)2,12.3066,15.7231,3.4165
Ca(Tb3Pr)2,13.6089,16.52,2.9112
Ca(AcPr3)2,8.4689,10.0962,1.6274
Be2CrW,17.7527,17.4703,-0.2824
HfTlRu2,50.0998,42.874,-7.2259
La3ScCu,46.1973,31.6398,-14.5576
PrMnGe3,24.0582,21.6839,-2.3743
Pb2SF2,29.8723,27.9651,-1.9071
Ga2H2Pt3,40.525,28.3085,-12.2164
Na3OsI,28.5053,25.9515,-2.5538
LaSc2Cu,33.0381,25.6915,-7.3466
NaLa3Mo,40.5502,28.5724,-11.9778
Zr2ReOs,69.2897,62.1095,-7.1802
YCl4,33.1758,32.5547,-0.6211
NaOs2I,34.2634,34.9196,0.6562
Pr6Tl3O,13.9176,14.0787,0.1612
Ca(AcSm3)2,27.4082,29.8416,2.4334
BeCrW2,24.5733,26.6504,2.0771
Sr2Ac2PdPt2,49.6047,42.6441,-6.9607
BaLiTc,34.7548,29.4169,-5.3379
TaRuSe2,37.3853,35.6413,-1.744
BaLiTc2,49.6033,42.8081,-6.7952
Ba2LiTc,25.9548,22.837,-3.1179
Li5In2Hg2Pd,6.1203,6.3587,0.2384
SiNiHg2,3.2358,3.6946,0.4588
Ga2TeRu,20.2532,20.1825,-0.0707
ReIN2F,66.8046,61.2615,-5.5431
Ta(Re2N)2,102.9035,96.981,-5.9225
SrAc(AsPt)2,48.3715,37.5762,-10.7952
Mg2In2Se5,30.9155,26.1403,-4.7752
BeCrW2,24.4806,26.6504,2.1698
LaTmHf,75.4967,57.5895,-17.9072
MoPd2,14.5213,16.1879,1.6666
YSc4Tl5,28.5398,30.5048,1.965
NaPmLuHg,20.6281,21.3717,0.7436
Li3RuCl,8.0854,7.3586,-0.7268
Ca(Sm3Dy)2,23.3832,26.372,2.9888
Ce2DyLu,27.7724,30.9879,3.2155
RhSe3I,44.7379,35.5264,-9.2115
LaScCu,42.2079,32.148,-10.06
Ca(Sm3Ho)2,23.5883,26.5569,2.9686
RhSe2I,41.9614,34.0959,-7.8655
Y2Tl3SbTe6,39.0326,37.4988,-1.5338
CuTcRh,50.0596,43.1823,-6.8772
Tl2TeW,46.6186,46.7907,0.172
YHoTl,25.9672,29.5478,3.5806
Ca(YBi2)2,38.5803,38.0371,-0.5432
TaRuSe,33.731,33.6229,-0.1081
Ta2NbAsN,46.4616,42.5337,-3.9279
Ta2RuSe,34.5102,38.307,3.7968
Ce2LuSc,22.2084,25.4209,3.2125
NdTmRu,23.5951,27.3741,3.779
Ti5Cu2Rh,3.8004,5.2553,1.4549
Ti2Cu2Rh,14.2473,14.0053,-0.242
Sr2CaIn6,17.1965,17.2796,0.0832
Nd2YTmBi5,40.6133,42.0464,1.4332
Hf(CrRu)2,29.2905,24.2944,-4.996
Sr2AuCl6,13.3705,15.2759,1.9054
NdY3(TmBi3)2,37.0724,38.8844,1.812
PmYIn4,20.8578,21.4853,0.6275
Ac2HoRh2,44.3752,42.5563,-1.8189
TaRu2Se,21.7381,25.0613,3.3232
Cs3GaBr4,11.4679,12.6807,1.2128
CeY3(Ho3Er)2,24.6224,26.2122,1.5898
YMgTe2,21.0272,21.8672,0.84
TaRuSe2,37.3109,35.6413,-1.6697
Sr2Ac2Pt2Rh,54.1318,44.9415,-9.1902
KZr2As,55.2529,44.7835,-10.4694
SrPbI2,27.5631,28.9028,1.3397
Ac(YEr)2,25.274,29.3727,4.0987
Mg3Al7Cu2,6.7164,5.7062,-1.0102
BeI3,24.6685,27.0664,2.3979
PmYZn2,15.1483,15.9167,0.7684
MoPb2Br,40.905,39.3009,-1.6042
ErBeGa,12.3097,15.4753,3.1656
Tc2AuBr,61.985,55.5796,-6.4054
Ac4Y3ScSe8,41.3788,37.4734,-3.9053
MoPb2Br,41.1032,39.3009,-1.8023
Zr2BeP,50.2005,40.6389,-9.5615
Co2IrPb,29.7412,30.8292,1.088
SrZrOs3,50.3543,47.4375,-2.9168
NaY(C2O5)2,15.6289,11.6787,-3.9502
CaRhI,20.9767,17.9835,-2.9932
Al2TlMo,23.3173,22.2912,-1.0261
CaRhI,20.5013,17.9835,-2.5177
Y2Al9Si27(N15O)3,11.6794,8.9849,-2.6945
Ir(PtRh)2,64.1163,47.9542,-16.1621
Np(InRh)2,41.2779,37.0346,-4.2433
TcAuBr2,41.5747,39.0779,-2.4968
Tb2MnCo4B2Ir,15.0479,16.7273,1.6794
AcPr6,5.2516,7.6233,2.3717
SrGaIr,12.3275,11.9169,-0.4107
TcAuBr2,41.5229,39.0779,-2.4449
ReMo,22.6602,34.0042,11.344
SrZrOs2,49.4068,47.2478,-2.1589
Sr2ZrOs,42.9191,39.1205,-3.7985
CsRb6,2.3544,2.0232,-0.3312
YTe2Br,26.6437,26.1919,-0.4518
RbPtSe,41.941,31.6723,-10.2687
RhPb3Br,50.5882,44.7979,-5.7903
TlCuSb2,37.0721,32.8077,-4.2644
Ac2NdYAs4,24.4939,27.3061,2.8122
As2PPt,37.3335,28.3227,-9.0108
Tl2CuSb,38.4506,36.7372,-1.7134
NdYZnAg,21.0734,20.1356,-0.9378
ZnCr2CdRe,42.1807,33.9061,-8.2746
Ac4RuPtSe2,58.1426,52.2403,-5.9023
TaRuSe6,42.5355,35.7022,-6.8333
KRbZn2Pt,23.6338,17.383,-6.2509
ZrH2,32.5026,26.7619,-5.7408
Ca2PmNd6,20.4864,22.8623,2.3759
ZnFeOs2,32.453,31.8545,-0.5985
Cs3Sm(YTe3)2,30.119,29.7408,-0.3782
SbPPb,29.4517,27.8139,-1.6379
Zn2In2Rh3,28.5614,23.2407,-5.3207
FeTcNi2,48.4615,39.6952,-8.7663
ZnFeOs3,35.7629,33.86,-1.9029
La4YTl,40.2353,29.8179,-10.4174
Na2SmPaO5,14.0238,14.2539,0.2302
Li2ScAg,10.0169,9.0509,-0.966
Ca2PrNd6,17.4686,19.2808,1.8122
Ir2PtRh2,55.2674,46.0112,-9.2562
AcBiAsPt,54.1315,49.0937,-5.0378
Ti5Tc4Pt,47.9635,41.8994,-6.0641
Tm4TlHg2Rh,27.1952,27.0083,-0.1869
AgHgI,17.9474,16.116,-1.8314
AcPrPt,31.9188,29.1919,-2.7269
CuTeSe2,33.0586,28.7118,-4.3469
Ca(PmAg3)2,26.6989,23.6813,-3.0176
Sr2Ca6Pm,10.7173,10.7861,0.0688
NiIr3,34.2643,38.2454,3.9811
Ca(CeAg3)2,26.8047,23.5589,-3.2458
SnRhAu2N,40.6116,36.2366,-4.3751
Ca(ThAg3)2,35.9679,32.9505,-3.0174
RbIn6,14.7237,15.5172,0.7935
AlPdW3,29.0145,32.536,3.5215
RbLi2HgO,15.6156,13.4004,-2.2152
InFe2Os,28.0029,23.4693,-4.5335
TcPb3I,54.7332,52.7311,-2.0021
ThRh6,28.1249,19.571,-8.5539
MoPb2Br,37.0911,39.3009,2.2097
PmRh6,23.8704,15.1971,-8.6733
PrRh6,19.7252,10.6226,-9.1026
NdRh6,23.888,14.8357,-9.0524
SmRh6,23.8925,14.9431,-8.9495
CdSb2C,43.8117,34.1396,-9.6721
Ac2SiBiPt6,66.4177,49.6271,-16.7906
ZrH2,32.2679,26.7619,-5.506
LiRh2W,34.4628,29.7783,-4.6845
Ta3GeC,25.9551,27.7003,1.7452
Ge2RuPb,22.29,24.8144,2.5244
LiRhW2,31.8619,31.5517,-0.3102
TaGeC3,47.8247,36.9356,-10.8892
La2Co2Ge2H,18.5585,15.2208,-3.3377
Ca(ThZn3)2,20.7337,21.5781,0.8445
SbAs2Pt,38.542,31.2617,-7.2803
Na2TiVO5,17.4004,15.0098,-2.3905
SbAsPt,31.4503,22.2586,-9.1916
Ca2La6Sm,38.5306,28.0114,-10.5192
AcSbPt4,71.3958,52.0658,-19.33
CaTi2S5,29.8483,20.8524,-8.9959
Y2TeBr,19.1846,20.0756,0.891
InRe2Au,37.6035,40.3499,2.7464
YTe2Br,26.6899,26.1919,-0.4979
CrCuN2O,11.82,10.2057,-1.6143
Ce6Cd2Pb,26.604,28.7536,2.1496
MnInIr,33.5968,36.0856,2.4888
La2CuW,37.8272,32.3263,-5.501
BaVRu3,36.2074,31.367,-4.8404
YTeBr2,18.8196,18.8447,0.0251
Mg2ZnHPt,22.8316,15.7564,-7.0752
Ac2LaRh2,48.9602,42.4905,-6.4696
YTeBr2,18.8035,18.8447,0.0411
Ac2MnSb4Pt3,66.8699,52.3651,-14.5049
TaRuSe,33.6253,33.6229,-0.0024
YTeBr,21.2108,23.746,2.5352
Nd2SmAg2,23.2621,24.0916,0.8295
YNi(H2Os)3,26.9229,24.9316,-1.9913
AcPtRh,60.2147,50.292,-9.9227