Formula,E_hull_DFT (eV/atom),E_hull_ML (eV/atom),Delta (ML - DFT)
CrCuIr2,27.7357,28.9484,1.2127
ThZrSc4,23.9624,23.7452,-0.2172
Ba2CdCu2,7.3316,7.7521,0.4206
HgAuO2,12.7159,14.0112,1.2953
MoPbF2,17.7787,18.3262,0.5475
DyMnIr,40.9841,39.3562,-1.628
Ca2BeMoBr,14.2577,11.2258,-3.0319
GdThZr,64.6656,60.9997,-3.6659
ThZrSc2,43.6631,41.7562,-1.9069
LiEr2Au,26.1962,28.0021,1.8059
La4NiIr,42.3337,31.8837,-10.45
Y2ErTe3,23.4886,25.3988,1.9102
CsRb2Br4,9.3852,9.6951,0.31
Y2ZrIn3,32.4342,29.2566,-3.1775
Dy(ErCu)2,15.1715,18.8695,3.698
Er3Sc3CuTc2,73.1591,63.2615,-9.8976
Sc3TiS,22.6793,21.9058,-0.7736
Ti2InRu,11.1404,15.1868,4.0464
MnInGeIr2,45.1573,42.1011,-3.0562
MnAlTe2,47.1678,41.2895,-5.8783
TaAl3Hg,10.0541,11.4066,1.3525
Dy2Co2Si2C,23.0583,20.3957,-2.6626
Rb2AgMoIr,22.7842,18.993,-3.7911
MnCo5Sb,26.2337,22.9606,-3.2731
Al2AgSn2,12.3557,12.7778,0.4221
TaPdN3,20.4578,19.19,-1.2678
CdIn2SnBr6,14.2091,14.9393,0.7302
Nd23Hg4Rh7,21.0088,19.259,-1.7498
MnCoSb,44.9513,36.6395,-8.3118
Pm2Sm2Ag3,27.5405,26.5248,-1.0157
Ca2SbSe,43.0928,34.5824,-8.5105
MnCoSb,51.8141,36.6395,-15.1747
Y3TlAg2,20.559,21.054,0.4949
Ba2MnAlS5,40.1701,28.3544,-11.8157
MnAlPb2S5,48.7428,39.041,-9.7017
LiCoSb2,25.273,20.041,-5.2321
KReW,33.8319,34.9164,1.0845
Tl5(V2Ni)2,71.4728,61.377,-10.0958
Mn2CoSb,64.0463,51.4314,-12.6149
NbSiSN2,43.299,33.8358,-9.4632
Sr2Tl3In,30.3818,32.372,1.9902
H9I3O2,15.0343,12.112,-2.9223
ThNp4N5,33.8748,37.6669,3.7921
ThNp4N5,33.8688,37.6669,3.7981
CePr3(AsO4)4,4.7781,3.5806,-1.1975
Ba2SrTcS,32.4537,26.7617,-5.692
SmSb2Au,35.0753,32.9415,-2.1338
TiCr2Sb,28.6209,25.2858,-3.3351
TiCrSb2,31.6708,27.2784,-4.3924
ErZn2Sn,16.1154,18.1204,2.005
Ti3CrSb,23.4693,21.1152,-2.3541
Sc5Sn2PdRh2,18.9085,14.478,-4.4305
In(SbAu)2,37.4252,34.6721,-2.7531
NiPt4Au,68.576,50.6639,-17.9121
Tl3Cd2I7,28.8099,29.1981,0.3882
Li4CrSb,9.6032,8.1756,-1.4276
Zn2IrPt,40.8516,32.0143,-8.8373
LiCrSb4,31.9583,24.7269,-7.2314
CuAgGeAu,23.7494,24.027,0.2776
SrTm3Ru,24.1414,25.9344,1.793
Tl4GeTe5,42.1785,40.757,-1.4215
Cr3PtBr,37.4004,28.86,-8.5404
Zn2IrPt,40.8258,32.0143,-8.8115
ZnIr2Pt,50.2431,41.7792,-8.4639
PuPaPd4,34.6049,37.6954,3.0905
NiRh4W,41.2906,32.6922,-8.5984
Th4NiPt,52.0586,50.7408,-1.3178
LiScFe2,33.8913,28.9576,-4.9338
La(NdCu)2,18.2007,17.9402,-0.2605
TmNi3Rh2,26.1634,21.4063,-4.7571
Sm3(HoAg)2,27.6972,29.0462,1.3489
TbY14Er,15.6374,16.7775,1.1401
Pr4NiRh,5.0326,2.3632,-2.6695
AlTc2Os,58.7561,53.4003,-5.3557
Cr2PtBr,44.1066,34.2043,-9.9022
Ca(PPb)2,29.8917,29.107,-0.7847
PmYTeAs,21.2223,23.9832,2.7609
Ac2NdCu2,29.4153,32.6337,3.2184
U2(NiRu)3,25.1939,28.0151,2.8212
Pr2AlAgSe5,23.4479,18.855,-4.5929
CoSnSb2,25.5672,21.26,-4.3071
Pa2(NiRu)3,24.7596,27.5663,2.8067
HoTm4Rh5,38.678,33.805,-4.873
Cs2TcAgBr6,23.3163,21.4863,-1.83
Pr2ErSb3Pt4,50.2906,36.0657,-14.2249
SrCa2SeS,43.893,34.0262,-9.8668
Ca3MgHg12,0.6273,1.1683,0.5409
SrTbNiS3,31.5791,24.9945,-6.5846
Er2NpSb3,23.5488,24.833,1.2842
AlTeAu2,35.1397,35.6632,0.5235
ErPa2Sb3,42.5247,41.7075,-0.8172
AlTe2Au,29.7434,30.618,0.8746
ZrTa(VN3)2,34.7902,26.463,-8.3271
AlTe2Au,33.6492,30.618,-3.0312
HfRuF2,44.0052,33.728,-10.2772
Zn(CdIn)2,15.6606,16.8136,1.153
Pm2TmCu2,14.047,17.5412,3.4942
AlTeAu,26.9583,28.62,1.6616
ZnCdIn2,16.7047,17.765,1.0603
DyY3Au2,20.8828,23.4321,2.5493
TbNd2ScP4,21.376,20.8675,-0.5085
Er4NiSb,25.5133,26.317,0.8037
NiSbTe4,39.7164,35.4764,-4.24
Cs3AgGe,16.7141,17.5672,0.8531
AcAlSi2Ni5,18.4181,18.0209,-0.3973
Zn2InPb2,25.6952,27.12,1.4248
Zn2Cd2In,14.8121,15.6679,0.8558
TcIrI,46.7525,47.0628,0.3103
Sm2ThAs3,22.8685,25.7325,2.864
Tm4NiSb,26.4325,27.1856,0.7531
Sc2TiSb2,16.7651,14.1884,-2.5767
Sm8Sn2Au,25.8443,27.541,1.6967
K3Sr5Cl12,2.4135,4.0194,1.6059
Ca(CoTe)2,21.321,18.3525,-2.9686
TlZnCd,26.0839,27.1328,1.0489
Nb3GaAg,94.0217,77.0363,-16.9854
Mn2Ni2Ru,78.9054,69.7839,-9.1215
YZn2Ag,13.5421,12.0834,-1.4587
Zn2InPb2,28.152,27.12,-1.032
SrTbAgS3,33.5165,26.6958,-6.8206
SrBeS2Cl,31.8686,25.8588,-6.0098
ZnIn3Pb,24.1878,25.0501,0.8624
MnGeOs2Pb,50.1552,47.8588,-2.2964
CsRb2NpO4,4.1612,7.5997,3.4386
SmYGaIr,27.2441,26.6491,-0.595
Cu2GePt2,40.1097,30.2074,-9.9023
PaAlSi2Rh5,42.2967,32.8411,-9.4555
ZnInPb2,33.273,35.4967,2.2237
TaAs2Ru,16.244,16.5619,0.3179
YTmSnPt,48.6074,38.3679,-10.2395
GdGaAu2,25.8217,28.8744,3.0527
ZrTi5Al2,18.6403,15.9255,-2.7148
Pr3DyErTm,8.9866,10.3975,1.4109
Nd(CuSb)2,20.3377,19.1618,-1.1758
Sr2Cu(SI)2,26.2735,22.6388,-3.6346
SrSmAg4,27.1555,23.9898,-3.1657
Pm(CuSb)2,20.3748,19.2587,-1.1161
VSiP,46.5218,25.8465,-20.6753
Sm2Lu,27.8902,31.28,3.3898
InRuSe3,37.2393,31.4644,-5.7748
PtRh5,48.6638,35.024,-13.6398
Zr2(NiIr)3,42.652,39.4769,-3.175
LuRhAu2,43.5733,41.7219,-1.8515
AlZnAs2,20.4081,17.6096,-2.7985
Cd(GaSe)2,26.371,22.5632,-3.8078
TaGaRu2,32.7951,31.7284,-1.0667
Sr3AgI,18.5839,18.0466,-0.5373
Ce3Nd(YSe3)2,32.8828,28.9169,-3.966
La4NiTe,36.5849,26.3247,-10.2602
Tm4NiTe,12.716,17.7483,5.0324
Pu(CuSn)2,55.0974,50.4166,-4.6808
CeNdNi,22.2308,23.1083,0.8775
NaSrScGe2,23.358,18.1964,-5.1616
CaLaFe3,24.9162,17.7455,-7.1708
CsRbAuO2,18.6707,18.7116,0.0409
Nb3BO,85.1168,69.8676,-15.2491
LaMnFe2,44.2608,34.7154,-9.5454
YTm(SbO4)2,35.1825,29.9332,-5.2492
La2PbI,43.954,36.1813,-7.7727
GdGaNiAu,23.7454,25.1748,1.4294
Cs2Yb6NF,26.4418,27.2324,0.7905
SbC3,53.4097,39.4225,-13.9873
Tl2RePt,53.9553,48.8847,-5.0705
EuGdGaAu,27.6914,30.1006,2.4092
Tb2TmCu2,14.7575,18.1534,3.3959
Y2Ge5Pd3,13.2001,12.6331,-0.567
Ni2BiRu,15.8583,19.6164,3.7581
Y2Ge5Rh3,16.6472,12.5329,-4.1143
Li(CoCu)2,25.8842,20.2499,-5.6343
Pr5TmSi4,6.141,4.5727,-1.5682
GaSn3Pb,24.9642,25.7452,0.781
PrNpSe3,18.9807,18.4138,-0.5669
Sr2AlOs,14.2609,18.4194,4.1586
MnCoSb,45.0852,36.6395,-8.4458
Zr4TcNi,81.7895,67.3135,-14.476
Cr2Ga3Ir,9.2126,10.6956,1.4831
K2TaCuOs,25.153,24.2978,-0.8551
La2EuY,36.4702,29.1897,-7.2806
ThCd4,23.2095,26.2264,3.017
Sr2InS,21.5585,20.0938,-1.4647
Pr2AgTe,15.2357,14.6598,-0.5759
SrOsS2,35.7746,31.6168,-4.1578
Th2ScSb3,45.5962,41.606,-3.9902
K2MnIr,38.2497,35.1922,-3.0575
MnCS2,69.6263,52.5198,-17.1065
InAsRu2,18.4632,19.0037,0.5406
Tm2CdRh4Pb,40.5268,35.3159,-5.211
Hf2Al2Co3,58.3104,40.9614,-17.349
HfGa2Ru,44.8733,35.9965,-8.8769
Nb3Ni3Rh2,67.4075,54.8381,-12.5694
Fe7As,11.2163,10.7847,-0.4317
Zr3Ni3Rh2,50.9628,40.6963,-10.2666
Nb2(NiRu)3,43.5609,38.9498,-4.6111
Nd(ZnCu)2,10.4652,12.0162,1.5511
Ce2(NiRh)3,30.5736,24.0722,-6.5015
HoPu(UAs2)2,33.7388,36.2618,2.523
Pa(ZnCu)2,19.2347,20.9425,1.7077
AlSeI,15.8456,11.4412,-4.4045
ZrAgSb2,49.3416,39.0924,-10.2492
Zr4NiOs,64.662,52.9608,-11.7012
CePrSc2,7.6769,10.124,2.4471
Tm(ZnCu)2,8.375,11.1281,2.7531
HfMo2Ru,41.1558,35.4356,-5.7202
CsAg2SbBr6,22.5114,20.944,-1.5674
In2Rh2O7,11.2447,8.756,-2.4888
AsC5,52.9887,37.6336,-15.3552
SrSmAg2,25.0564,23.5736,-1.4829
As5C,18.9913,17.2443,-1.747
AcYZnGa,25.2357,26.0683,0.8325
BaNaSmPb,25.3577,26.1678,0.8101
KTa2O6,0.2007,4.3955,4.1948
SrBrO3,7.5365,7.4136,-0.123
CaTiCu4,7.5331,8.0541,0.521
ThBe2SiPt4,59.5078,44.6228,-14.885
Mg3Cr2,1.26,2.8058,1.5459
Ca(TiCu)2,2.4552,4.498,2.0427
Sr2MnBe,37.3521,28.9469,-8.4052
TaBi3I,45.0529,46.3018,1.2489
TeP2Br,12.6095,13.443,0.8335
CaLa3(YTe3)2,36.8696,29.9614,-6.9082
Be2ReI,26.6723,29.4222,2.7499
Sm9Y2Er,23.5334,25.1697,1.6363
Y2ErPaAs4,19.1586,21.848,2.6893
K2NiBi2,24.5458,25.2934,0.7476
YThMg,28.9403,30.3621,1.4218
PrFeCu,14.4172,12.9078,-1.5094
SrYEr2,23.8494,24.375,0.5256
SrRuSCl2,25.7833,23.034,-2.7492
Th2CuAu2,40.598,44.2719,3.674
Ba2CuAu2,16.7536,18.8506,2.097
TcNiAs3,34.2712,29.115,-5.1563
Pa2Ga2Cu,26.6963,30.1215,3.4252
PuZr3Ti,47.8134,39.4049,-8.4085
TbYbSb,30.438,30.8634,0.4255
CeTh3,55.8339,59.4299,3.596
SrLaPm2,28.7754,26.7528,-2.0226
NiAsC2,38.4968,28.8452,-9.6516
CaMg2W,9.8164,12.9552,3.1388
PmTh(SiPt)2,48.7823,38.3135,-10.4688
LaPm,33.4435,28.5664,-4.877
Sc3TlS,13.6551,17.3414,3.6863
Yb(Sb2Rh3)2,45.6699,34.0882,-11.5817
SrTaIr,41.925,36.4574,-5.4676
SrLaPr,20.2327,16.1109,-4.1218
Cs2YNpO6,11.2085,12.945,1.7364
Yb(Sb2Ir3)2,43.0354,40.9081,-2.1272
Yb4SbSe3,39.5328,35.9616,-3.5712
YbSbPd,18.6958,21.3099,2.614
YbSbIr2,41.4951,41.8371,0.3421
CuAs2,4.9364,9.5985,4.6621
Yb(Mn3Sb2)2,73.6726,58.9452,-14.7274
Cs6AgAu2O,30.637,29.3575,-1.2795
YbAlSb,16.551,17.0595,0.5086
TePBr2,17.2023,16.5823,-0.6201
Cs2ZrTeO6,12.1467,10.5797,-1.567
Nd2CuIr2,28.0716,31.9219,3.8503
Sr2ScAlSe5,24.7932,20.1226,-4.6706
SrMo2S,19.0659,17.3795,-1.6864
Ba2CdPtAu6,38.9598,37.4038,-1.556
SmMn4,76.4547,63.3005,-13.1542
SrSe3I,36.4307,30.5452,-5.8855
SrCr2C,33.4357,27.2471,-6.1886
BPPdS2,29.2901,26.3955,-2.8946
Rb(AgSb)2,27.8277,22.2431,-5.5846
CdNiI4,18.2692,19.4321,1.1629
BaV3Ir,88.5743,71.125,-17.4493
Sr(CaAc)5,33.7537,34.4392,0.6855
Sr2CrRu,15.7498,14.7255,-1.0243
SrTaIr,42.6357,36.4574,-6.1782
SrCrRu2,16.4997,16.1179,-0.3818
SrCr2Ru,14.5928,13.315,-1.2778
Pm(YEr4)3,26.1924,27.7147,1.5223
CaZr2ZnN,51.656,40.8208,-10.8352
Ac3La,61.3393,58.9774,-2.3619
Ac2La3,52.873,44.5408,-8.3322
WC3,57.864,42.5506,-15.3134
K3Cr5Br12,10.402,9.6261,-0.7758
Ac3La,61.3297,58.9774,-2.3524
LaY2Er9,28.6675,28.5322,-0.1353
KTl2Ru,29.3547,30.7723,1.4176
AsPt2F,44.5773,32.6204,-11.9569
Sr3LaPb,29.0549,26.2724,-2.7825
Sr2LaPb,32.6211,29.4319,-3.1891
Li3Tl4,29.0953,30.2978,1.2024
EuIn2Sn,21.734,23.1373,1.4033
GeOsRu2,21.1819,25.6264,4.4445
Cu3PPb,20.2458,19.2945,-0.9513
BeNiI3,23.3586,24.5645,1.2059
Nd3BiRu,28.6346,30.6021,1.9675
Pm2VSb,55.5835,47.5757,-8.0078
Nd(SbRu)3,23.7178,21.3935,-2.3243
NdBiRu,31.5827,35.7854,4.2027
Pm5NdRu2,38.993,33.0795,-5.9134
CuTe2,26.9029,26.3932,-0.5097
Pu2Cd3Ag2,37.7188,37.0849,-0.6339
NbB3C,50.6963,40.2191,-10.4772
SrAc2Pr,34.5115,37.2525,2.741
Ba2CdIn6Pt,22.5974,20.7462,-1.8512
SrY2S,25.8949,21.6316,-4.2633
Ce3(AgPb)2,34.3459,34.3864,0.0405
RbLiMo2Ir,23.5019,18.8768,-4.6251
Pr2Nd3Ru2,29.4654,28.3371,-1.1283
Hf4CuNi,97.7446,71.9479,-25.7967
Ta2CdMo,27.3594,31.7541,4.3947
NiAs,11.1908,9.9783,-1.2125
NdY(HoHg)2,17.7107,18.0897,0.3791
YEr2Tl9,43.9405,45.1113,1.1709
NiAs,0.0,9.9783,9.9783
NiAs4Ru,14.1891,11.6245,-2.5646
Ir3Os,43.0887,49.6055,6.5168
Be2IrW,26.2957,26.6996,0.4039
GaSnSe3,30.3589,25.2034,-5.1556
GaRu3Pt,31.535,26.5557,-4.9793
La2ScMn2,54.9905,41.7936,-13.1969
NiPdBr4,11.5039,12.9493,1.4454
Ga2SnSe,21.521,20.3676,-1.1534
BeIrW2,33.1465,38.2812,5.1346
BeIrW2,32.9074,38.2812,5.3737
Nb(ZnB)2,36.4654,29.2862,-7.1793
Cr2OsRh2,31.5516,26.6684,-4.8832
SrGa5Os,13.6876,14.8828,1.1952
ZrHgMoOs2,44.3498,38.1663,-6.1834
ThBiI,42.2117,44.9728,2.7611
CsNpCd2O6,12.0611,14.3934,2.3323
CsNdSb,26.7244,26.4458,-0.2786
Zr2PbBr,72.4323,58.7453,-13.6869
Cr2ReW2,27.2654,31.0183,3.7529
Er4CuNi,21.5293,24.6992,3.1698
ZrPb2Br,60.9235,52.9777,-7.9458
CaHfTc2,77.079,63.7805,-13.2985
GaTeSe2,32.8637,29.0985,-3.7652
Cr(OsRu)2,0.0,3.6735,3.6735
Ho3(TmAg)2,29.7413,30.3492,0.608
Tm4CuNi,22.3741,25.605,3.2309
Cd(SbBr)2,35.9139,32.8031,-3.1107
Cs2HfBi2,56.2368,50.1187,-6.1181
Pr3Y2ErS6,30.7139,23.2377,-7.4761
Ag2TePt,48.6929,37.7991,-10.8938
Sc(TiNb)2,51.4165,45.6293,-5.7872
CuNi2Br,11.4536,11.6857,0.2321
PrY(ErS2)4,39.7979,31.6851,-8.1127
Zn2CdW,18.5348,20.8797,2.3449
NaCeInAu,28.8585,29.2598,0.4014
YP,34.8053,27.1627,-7.6425
MoOsAu2,42.0003,41.351,-0.6493
CaIn4Se,35.9216,31.9753,-3.9463
ZrScBr,40.3431,33.3247,-7.0184
Cs2CuOsO6,9.2695,11.7,2.4305
SrSc3Au,16.4904,17.407,0.9166
Cs2RbHgAs,28.158,25.5621,-2.5958
Si2MoBr,14.3838,11.7726,-2.6112
TiNbB2,30.3536,34.54,4.1864
Fe2AgSn2,9.7111,11.3912,1.68
Nd2Sm3Ag2,26.6278,27.361,0.7332
SrBe2W,26.9907,19.5342,-7.4565
GdGe4Bi,20.0278,21.6918,1.664
AlTl3,39.042,40.3906,1.3485
Na2Sb2Pb,35.119,30.1722,-4.9468
InSb2Se,39.5827,32.2626,-7.3201
Na2NbInSi,46.0524,37.3197,-8.7327
Sc2SbAu2,25.2632,25.3626,0.0994
CaNbB2,31.8709,30.6784,-1.1925
Sc2TlS,32.7943,33.2873,0.493
InSbSe,26.492,22.5039,-3.9882
Al2TlSi,28.2903,26.0948,-2.1955
Ti2V2Cu,47.6293,39.569,-8.0602
Cs2BaOsO6,8.3523,11.1245,2.7723
Ba2ScRe,29.0933,25.0241,-4.0692
CdSi2Au,24.241,21.4112,-2.8299
SrBeW,33.3259,23.1615,-10.1644
Tb5Dy3,26.9013,29.3862,2.4849
TbY2ErIn2,16.6891,18.0125,1.3235
TmH12Rh7,18.6809,13.7429,-4.938
LiReOs2,31.3559,35.6974,4.3415
Na2Li2Ge,9.9627,8.9363,-1.0263
PdPbBr2,30.6556,28.7776,-1.8779
SrCeAg4,27.2022,23.942,-3.2602
RbY2In,11.0447,11.063,0.0184
CrReRh2Pb,42.4006,36.0572,-6.3434
NaLiEuIn,19.3708,18.1966,-1.1742
Pt(Pb2I)2,49.3602,45.926,-3.4342
InAsPt3,60.8234,42.6858,-18.1376
Dy2HoCu2,14.5755,18.4011,3.8256
Er(TmCu)2,16.099,19.8633,3.7643
Cd2IBr,16.6751,17.5112,0.8361
Li4Ac2CdSn3,20.744,22.0824,1.3384
Ac2PaSb,60.2204,60.3092,0.0888
TlAgMoBr6,18.015,17.823,-0.192
MoPBr,21.6472,19.1663,-2.4809
Y4Er2Mg,17.904,18.7223,0.8183
Tl2(PdAu)3,36.9909,38.2491,1.2583
Ac(CeSb)3,32.8454,31.2296,-1.6159
CeAgSb2,30.9475,26.835,-4.1125
SrPmFe2,21.6592,20.0044,-1.6548
Be2MoBr,7.8565,6.6132,-1.2433
TlInCu2Pb,27.9557,28.8981,0.9424
Pr(CrSb)2,13.9204,11.1232,-2.7972
YErTeO2,22.7208,24.2305,1.5098
TbDy2,27.1363,30.6419,3.5055
ScCrSb2,34.0952,26.7881,-7.3072
Pr2CF,13.6252,10.9312,-2.694
Sc3TlPd6,15.821,15.6278,-0.1932
Ce3YEr3Te8,32.8817,32.2311,-0.6506
NaNb2GeW,72.5472,61.8819,-10.6653
CeScCd2,16.9094,19.1789,2.2695
CeScCd,16.2824,18.8552,2.5728
In2SiTc2,41.698,36.9477,-4.7503
Cr3MoBr,23.1699,21.2746,-1.8953
In2SiTc,37.3709,32.6787,-4.6922
CaSb3Pd,34.0148,26.4984,-7.5165
YEr3(TmIr3)2,34.4992,37.0718,2.5727
Ce2ScSb2,23.3593,21.8024,-1.5569
LiCuW,16.673,19.2554,2.5824
Cu3W,14.9256,13.2344,-1.6912
CeSc4Ag5,19.9504,18.3551,-1.5954
CePdC,27.3572,26.6168,-0.7405
GeRu2F2,17.2685,18.0633,0.7948
InNiAs3,19.184,16.9727,-2.2113
DyHfRu4,38.9773,35.368,-3.6093
Y3Er4Tm5,26.0481,27.2962,1.248
CaReO4,9.3402,13.0561,3.716
YEr2Zn3,13.3105,14.6128,1.3023
Ca2ScMnNb,54.7307,43.5452,-11.1855
MoAs2RhBr,20.0967,17.6882,-2.4085
Rh2Pb4Au,50.7707,47.6255,-3.1453
Re2BiTe,45.1899,47.1836,1.9937
TbPr4(YEr)2,11.8042,12.7429,0.9386
NpCdO4,13.3369,16.9661,3.6291
CsSr2Mo,17.6619,18.8054,1.1436
CeLuPd2,22.8118,25.8633,3.0515
Li2LaNb,49.1204,39.0356,-10.0848
YEr(TmIn)2,20.2517,21.8322,1.5804
Ce2GdPd,23.9884,27.0997,3.1113
Ni8Sb,12.5595,13.2079,0.6484
Cd2GeRu,16.4384,18.3517,1.9133
PmCdO4,6.3695,8.2913,1.9218
Y2ErZrRh4,35.3261,27.9138,-7.4123
KSrBi2,30.5063,32.7341,2.2279
Tl2Ga2Sb,32.7908,31.7384,-1.0524
HfV3Cd,111.559,85.2241,-26.3349
NaFeTcP2,37.3446,31.8878,-5.4568
Sr2BeBi2,27.5822,26.3888,-1.1934
Li2YCd3,9.3924,11.1176,1.7252
HfVCd2,73.7515,58.7791,-14.9724
SrAcPm2,32.0949,34.9448,2.85
Sc2Cr2O7,41.1509,35.3186,-5.8323
CeNi2Pd,18.8676,19.2397,0.3721
SiNi2As,19.5708,18.1476,-1.4232
AlSi2Ru,25.4563,20.0645,-5.3918
CeY2ErS6,40.2614,32.3212,-7.9402
Ce2HfPb,61.5302,53.0188,-8.5114
AuI3Br,25.8709,26.2187,0.3478
RuPtO2,27.483,20.1461,-7.3369
Li2CuSb,9.9726,10.014,0.0414
TcPt3I,78.0899,56.8161,-21.2738
Dy2Tl2Au,40.3491,42.7085,2.3594
Y2ErPuO8,21.0513,21.0431,-0.0083
CeY4Er7,23.9173,25.2774,1.3602
AcCoO4,4.5105,8.8982,4.3878
Pm4YEr7,26.6319,28.275,1.6431
LiSm2SnO5,28.0368,23.4335,-4.6033
Tc3NiI,63.8634,55.1457,-8.7176
BaLa2RhO5,28.6644,24.8002,-3.8643
Al2Ga2Ru3,10.9839,12.1181,1.1342
CePdBr6,12.997,13.5395,0.5425
NaLuPb2,40.589,40.8534,0.2644
Ca2CrTc,38.1648,30.939,-7.2258
CaCr2Tc,39.0937,32.6314,-6.4623
SrBiC3,52.2917,40.4087,-11.883
NaNiRh3,37.5174,27.469,-10.0484
SrIn(BiPb)2,37.5685,39.3289,1.7604
CaCr3Tc,34.8203,27.8658,-6.9545
Sr4Hf2Bi,57.1898,45.9812,-11.2086
Cu2PtPb,34.9098,31.0453,-3.8644
Sr2InBiW,35.652,30.2119,-5.4401
K(SrBi)2,25.77,27.7025,1.9326
SrBi2C,47.0102,43.2291,-3.7811
Y15Er4Th,19.5924,20.9382,1.3458
SrTaBi3,49.2817,45.5206,-3.7611
ZnSb3Br,38.0235,31.4241,-6.5994
BeNb3Sb,94.2604,76.7237,-17.5367
SrSnBi3,36.0669,37.8448,1.778
NaMoRh2F,31.0073,23.3107,-7.6966
Sn3PbAu,33.3441,33.8579,0.5138
Th3SbSe,36.8204,38.2733,1.4529
SrBi2W,44.3606,40.2526,-4.1079
TmTh(SiPt)2,49.7405,39.1115,-10.629
AcDyAl2Pd5,19.9669,21.9135,1.9466
CsNb2AgO6,25.0143,19.9049,-5.1094
Tl2ReSi,40.2142,39.5888,-0.6254
Tl2ReSi,40.4058,39.5888,-0.817
ScTi3N4,21.9505,20.2895,-1.661
SrTmSc,16.6026,18.9603,2.3577
NaSrReBi2,44.4275,41.0209,-3.4066
SrBiOs3,41.9318,42.993,1.0613
ScMo2Au,29.9372,32.6724,2.7351
NaCd2Ir,26.7311,26.8092,0.0782
K2SrBi,20.6876,21.6157,0.9281
SrPmBi2,36.193,38.3103,2.1174
Hf3MoAu,99.5198,74.8448,-24.675
BaSc2Re,34.9892,29.575,-5.4142
TcIrPb2,60.9723,59.6511,-1.3211
KCd2Bi3,33.1799,34.3639,1.1839
MoPOs,31.2223,29.3263,-1.896
La4Sb2Te,47.7387,34.3503,-13.3884
Mo3POs,31.1401,25.0291,-6.111
InTeBr,24.4192,24.6989,0.2797
CaTa2TiTe,27.2869,27.8015,0.5146
SrNbV2,104.1112,83.8414,-20.2698
SrGdInBi,28.8242,31.0455,2.2213
SrTmBi,28.7464,31.7041,2.9577
Zr2VPb,94.4954,77.8814,-16.614
Sc2CrSb,25.5088,20.9577,-4.5511
RbSrBi,22.8724,23.6948,0.8224
Zr3VPb,96.7085,77.8513,-18.8572
BiPRhS2,45.0908,38.9645,-6.1263
Ru3PtO,35.2647,27.8746,-7.39
CsKSrBi,25.8625,26.6627,0.8002
AlNiAu,18.5428,21.0081,2.4654
TmGa2Ru,10.8688,13.1635,2.2946
Sr(BeBi)2,25.6463,24.6238,-1.0225
Sr(GaFe)2,15.7214,12.3185,-3.4029
LiCrMo2,10.4593,12.5706,2.1113
Pr8Th,3.1157,5.004,1.8883
CaCrMo2,21.0605,19.0332,-2.0272
Sr2CrBi,20.9205,21.7428,0.8223
AlFeRu2,26.4789,22.21,-4.269
LiCrMo2,10.534,12.5706,2.0366
AlFeRu2,26.3991,22.21,-4.1891
Ti(CuSb)2,16.8606,14.7035,-2.1571
AlTe2As,36.8285,33.3178,-3.5107
AlFeRu,30.2897,23.0765,-7.2132
Sr3CrBi,22.5831,21.245,-1.3382
Nb2NiTe2,68.7821,58.4423,-10.3398
AlTe3As,38.4231,33.0477,-5.3753
Li(HfRu)2,55.3227,42.3494,-12.9733
YAlSe2,43.1768,34.1853,-8.9916
NaHfIr2,57.0277,51.2209,-5.8069
PrNd2Zr,35.8301,33.874,-1.9561
Ag5(IBr4)3,12.3329,11.1832,-1.1497
AcAl2InPd5,19.361,20.8826,1.5216
TaHgAu2,33.0105,34.9558,1.9453
Dy2Tm2Tl,29.4331,32.3995,2.9665
Sb2PbAu,47.6055,43.2999,-4.3056
CuIO4,12.504,11.1373,-1.3667
PrAl2InPd5,12.4153,13.1477,0.7324
Zn(SbPb)2,37.572,34.7325,-2.8395
ThNbSe3,62.2894,54.9656,-7.3238
Y8Er6Sc,19.6156,20.9798,1.3642
Ba3Cu2P3,7.3171,5.3275,-1.9896
CsBa2RuO6,10.2576,10.2685,0.0109
KP5,4.9559,6.36,1.4041
LaErAl2Pd5,18.7393,18.3765,-0.3628
SnPb2Se,39.9241,39.5999,-0.3242
WSI3,34.3473,31.4469,-2.9004
Pr(Cu3Ge)2,6.0403,7.3469,1.3066
ThPaSe3,33.2126,33.2677,0.0551
SnHgSe,22.7392,20.1467,-2.5925
Sn2HgSe2,27.4063,23.4934,-3.9129
BeAlRu2,13.9314,15.9093,1.9779
Cs2ScIrO6,34.157,33.181,-0.976
FeNiMo,15.2893,11.3885,-3.9007
Y8Er6Tl,22.7385,24.1526,1.4141
Ta2PtS4,56.0569,42.8623,-13.1946
Tb3Tm5,29.1325,31.4706,2.3381
CaAgRh,15.4991,12.2707,-3.2284
Na(AsPb)2,26.2707,26.7778,0.5071
Cs2ScTcO6,38.7606,36.4641,-2.2965
K4CaP2,16.495,14.2194,-2.2756
KCaP2,19.1863,16.8624,-2.3239
Ce2TmCuC,29.5498,28.9954,-0.5544
NpPd,34.601,41.1279,6.5269
NbCuB2,41.5541,33.6962,-7.8579
CaNpSi3,21.0747,18.3598,-2.7149
BaSr3Rh,9.2055,8.5548,-0.6507
AcPrAl2Pd5,16.7923,18.2932,1.5009
Pm2Tm2Cu,23.4427,26.7517,3.309
KCa2,6.2777,7.0993,0.8216
SrTb2Nd,22.9419,25.8704,2.9285
VTe4,54.7955,48.9615,-5.834
Re2TeRh,43.3679,41.8805,-1.4874
Y3ErRu8,20.9413,18.8877,-2.0537
CaPm7,22.3581,24.3383,1.9803
Li2VTe,39.2729,33.6825,-5.5904
CePaSi3,19.8386,19.1271,-0.7115
CdGa2Ag7Sb2,28.8033,23.6676,-5.1357
AlAuSe2,32.22,32.2141,-0.0059
Ta2Nb3Al2,63.8638,55.8068,-8.057
Pa2Tl2O7,11.8869,14.8243,2.9375
Cd7Bi,23.6486,24.4314,0.7828
PrSbF,8.6366,8.0163,-0.6203
PrCuSi3,28.4142,21.9356,-6.4786
AlTlOs2,34.8124,37.8504,3.038
PuZrZn17,15.6637,15.1776,-0.4861
Sr2Tl2I,27.366,29.0888,1.7228
CeCd7,19.8662,20.6332,0.767
AcDyO4,13.1312,15.6962,2.5649
Pr2Nd7Dy2,15.2002,19.1529,3.9527
Rb2SrV,35.2328,27.7675,-7.4653
ZrPaZn17,15.4383,14.975,-0.4633
LaTa2As,33.7922,32.399,-1.3932
ZrNpZn17,15.607,15.1777,-0.4293
LaY6Er5,23.4931,23.5298,0.0367
Sr(CuBr3)2,10.5478,9.6332,-0.9146
LaTa2As,34.0035,32.399,-1.6045
Hf2Sc3Al2,44.8533,33.791,-11.0623
Er2Tm2Pb,29.7879,32.5504,2.7625
Al2TlOs,24.9929,27.1822,2.1893
ScTcRhO2,80.0722,68.4302,-11.642
Pm4Pr3,12.2226,14.7461,2.5234
Zr2Sc3Al2,31.8351,26.7837,-5.0514
MnVCo2,60.7739,49.9713,-10.8027
BaSb2W,26.7735,24.4959,-2.2777
FeHgAs2,20.6533,18.0856,-2.5676
Y3Er3In2,22.2235,22.548,0.3245
SrAlIr,9.5454,9.8744,0.329
Pa2Zn2O7,22.1434,19.9205,-2.2229
NaSrSc2,9.4401,11.1232,1.6831
Co2AsOs2,28.8787,27.6705,-1.2083
RbNa2IrPb,29.8519,28.2726,-1.5792
ScCo2As,19.4053,16.1836,-3.2217
CoAs3Os,20.0964,19.543,-0.5534
Zn2TePt,36.6691,29.0077,-7.6614
Pr(Ga2Au)6,20.2564,20.6438,0.3874
Zn2TePt,36.7438,29.0077,-7.7361
SiPtBr3,30.1588,22.5934,-7.5653
ZrSc5Al2In,12.0806,11.2828,-0.7978
SrTc2W,61.5162,49.0205,-12.4957
TlAs2PbBr,33.4692,30.8772,-2.592
Sm(Y2Er3)2,23.6343,25.6598,2.0255
YSbRh,15.3695,12.6166,-2.7529