Formula,E_hull_DFT (eV/atom),E_hull_ML (eV/atom),Delta (ML - DFT)
ZrGaCuOs,40.3103,36.6545,-3.6559
ZrBi2PdO6,27.0682,25.6988,-1.3694
Th4Pd12Au,30.09,32.118,2.0279
Ac2DyZrO6,14.4504,16.9579,2.5075
HfZrCd2O6,26.1942,22.3051,-3.8892
ZrPaTl2O6,24.9285,25.725,0.7965
InTcC3,62.361,47.6092,-14.7518
CeZrCuRu,37.5157,34.3174,-3.1984
Rb4S12Br,40.799,28.8787,-11.9203
CaTiV2Os,64.0366,52.9887,-11.0479
Ba3YV,49.1022,38.9192,-10.183
GeIrW2,32.7274,37.5867,4.8593
Rb2SrLaI6,19.2916,17.9151,-1.3765
Ag6SeOF2,21.8616,17.5569,-4.3047
RbPrBi,16.902,18.3186,1.4166
Sr2ZrVO6,17.9028,15.1729,-2.7299
BaYF5,18.7322,15.8944,-2.8378
GdGa5Au,16.5845,17.7729,1.1884
PuV(PbO3)2,21.6467,22.4169,0.7703
CsGa,4.2132,8.1516,3.9384
CsGa2P,16.4329,15.9142,-0.5187
GdGaSi,17.3046,16.8469,-0.4577
Sm2VGaO6,16.4485,15.2901,-1.1584
KRb2SnSb2,17.7978,14.5231,-3.2748
Rb6Ag2AuO,9.6416,8.7097,-0.9318
BaY4,31.745,28.6062,-3.1388
Ba(ZnSn)3,9.4553,10.6379,1.1826
KBaLa3,34.2135,22.9384,-11.2751
Rb6CdHg2O,1.1118,1.2777,0.1659
Ba3Y,25.7376,21.5238,-4.2138
BaYSi4,28.5543,20.5304,-8.0239
KYbTe2,28.4157,28.8906,0.4748
Cs2In(TeO3)2,23.2916,19.7319,-3.5597
FeBiRu2,39.7836,35.0503,-4.7333
Gd2FeP,32.0568,30.7594,-1.2974
SrBe2Si,19.151,14.1055,-5.0455
CsSrAl3,10.7779,11.2864,0.5085
Ta2RuPt,44.317,40.4439,-3.8731
Ca2TmPaO6,25.6145,25.496,-0.1185
Rb2MoSe,13.4095,12.8863,-0.5232
CsAlCu2N,17.3891,14.5164,-2.8727
YBCl2,52.0548,43.0741,-8.9807
Y3TlBi,29.5146,30.9818,1.4671
Cs3CuP,20.6848,19.6042,-1.0806
NaInSi,16.765,15.7118,-1.0531
RbAg2C,33.0278,24.6386,-8.3891
BeCu2Tc,30.9913,26.7558,-4.2355
Y3Sc(TlS2)4,57.0452,50.7835,-6.2617
Si2HgRu2,11.2952,8.5065,-2.7887
BeCu2Tc,30.9046,26.7558,-4.1488
Cs5(Hg4Sb)3,9.459,8.5268,-0.9321
RbBe,0.1305,0.7086,0.5781
BeCu2Tc,30.9932,26.7558,-4.2373
BeCu2Tc,30.9361,26.7558,-4.1802
Cs2KMn,40.7885,35.1619,-5.6267
Ba3Zr(CuO4)2,6.9403,6.6084,-0.3319
Pa2Si2Pt,26.1333,23.8835,-2.2498
Te3AsOs,36.5045,34.9143,-1.5902
CaZrBr2,30.8893,28.3625,-2.5268
Np4CdPd12,29.8265,31.3635,1.537
BaCePr2,4.4905,6.983,2.4925
FePb(AuO3)2,12.9918,13.6926,0.7008
Si2IrPd2,15.4434,15.0236,-0.4198
TeAs2Os,26.8074,27.956,1.1485
GdMgCdBi,26.1448,27.86,1.7152
Sr2GaGeO6,3.7332,5.0842,1.3509
CaZrCuS3,40.791,30.4971,-10.2939
TeAs2Os,26.4197,27.956,1.5362
MgCo,-0.0,0.5114,0.5114
TeAs2Os,26.1275,27.956,1.8285
Mg12Cd6Bi,10.4793,11.2147,0.7354
CsAlTc3,65.1805,55.0935,-10.087
Cu2AgRu,16.1536,16.3218,0.1682
TlRhPb,51.3668,47.5695,-3.7973
Pr3TmNi8,12.5967,10.888,-1.7087
Al2TcBr,29.9854,27.314,-2.6714
In(CuSb)2,21.2146,18.5197,-2.695
Th3AgAu3,52.5532,53.6348,1.0816
NpTl2IrO6,20.6537,22.9384,2.2847
LaPm2ErAs4,19.8369,20.1824,0.3455
KB3Cl,5.9797,6.0883,0.1086
CuAg2Ru,22.4036,20.3647,-2.0389
Zr2CuBi,64.4634,55.6687,-8.7947
SrTlAg2,29.3332,27.828,-1.5052
LiCa2BePb,19.1373,16.5626,-2.5747
Ag(BiSb)2,42.7755,38.256,-4.5194
ZrCu2Bi,41.5738,37.4677,-4.1062
LiBePb,3.9672,19.9104,15.9432
ZrCuReBi,50.2963,47.2768,-3.0195
La2Co3Ge5,10.1803,9.1184,-1.0619
PmZrCuOs,42.8521,41.2328,-1.6193
Ca2BePb,23.2743,20.0242,-3.2501
BaY3,35.3171,31.4562,-3.8609
CaBe2Pb,24.1795,20.0866,-4.0929
Li2BePb,14.4151,14.7634,0.3483
ScCo2BRh,18.386,16.5261,-1.86
PbCl3,15.8848,16.9964,1.1116
Pr2ScTi,0.5972,4.0426,3.4454
NaIrPb3,46.4637,46.3844,-0.0793
BaY3,35.299,31.4562,-3.8428
Cs2MgP2,8.98,10.3362,1.3563
Ag2BiSb2,41.644,35.4485,-6.1955
Rb2CuBi,16.6171,16.8177,0.2006
TlTe2Pt,56.1319,47.411,-8.7208
RbCuSe,14.7886,14.4622,-0.3264
ErTl2Cu,34.3802,36.0056,1.6255
Li2EuEr,14.8027,16.4636,1.6609
Tm3Al3Si2Ni,23.4819,22.2572,-1.2248
CsNaCr2O6,2.2729,1.4531,-0.8198
Zr2CuPtN,57.8663,46.4277,-11.4386
Cd2SnBi2,31.2084,32.9876,1.7792
Ho2ThHg6,13.0935,14.7088,1.6153
TlRhPb2,51.3125,50.4754,-0.8372
YSc2Tl,18.5953,21.2092,2.614
SrTl(SO3)2,12.2013,10.7562,-1.4451
LiHfNb,74.404,58.0537,-16.3503
LiBeIr,15.735,17.3924,1.6575
Dy2NiGe,21.4987,21.2739,-0.2249
CsZrC3,62.6945,46.312,-16.3825
SrAc2TlO5,14.7251,16.0366,1.3114
CaAgOs,26.6207,27.7628,1.1422
LaNdGd2,33.7578,31.9622,-1.7955
SiTcIr,50.2068,45.6988,-4.508
Tb2Ce(AlGa)2,14.0462,16.7,2.6539
Ba(PuI3)2,24.4596,25.3384,0.8788
Be2TcW,38.7041,35.2012,-3.5029
AgHg(SO3)2,13.8641,12.5578,-1.3063
CaInBr,11.7765,13.1138,1.3372
CsZr(CuS2)2,44.6205,33.9865,-10.6339
Cs3Pm3SbO8,15.2642,15.8747,0.6105
Pu2Tl2Pd5,36.8362,38.834,1.9978
SrTaGa2Pb,41.42,36.2917,-5.1284
CsOsI2,28.9235,29.9687,1.0452
RbTl(RuO3)2,13.8832,14.9081,1.0249
AcPmPt,58.9501,52.257,-6.6931
Cs2AcI6,26.5841,27.8634,1.2793
CeY2Cu9,13.1135,12.6608,-0.4527
GdGaSi2,16.6011,15.0186,-1.5825
SrCe(SiO3)2,2.8946,0.5585,-2.3361
AcTl(SiO3)2,5.184,6.8459,1.6618
ZrAlP,56.1786,40.7088,-15.4698
RbV(SiO3)2,7.1367,4.7136,-2.4231
TbY2Th,23.9045,29.6851,5.7806
AcTbSmPu,47.3072,50.2827,2.9755
RbErCuTe2,19.7848,20.5541,0.7693
InReGe3,28.739,25.6437,-3.0953
Rh2PbSe,49.8688,40.3637,-9.5051
AsIr2I,24.9839,28.4059,3.422
La2AlHg,23.0752,16.9395,-6.1357
TiCoSiIr,33.3879,30.4369,-2.9509
Zn5(GeH)2,6.5094,7.2262,0.7168
CaMnTc3,79.4522,66.113,-13.3392
NbPdPb2,60.6562,57.3812,-3.275
SrUIr4,45.2803,46.2063,0.926
Ac3Pr2NdTe6,36.9923,36.5683,-0.424
Zr2CoCuCl,55.9358,43.4306,-12.5051
ZrTa2(TeSe2)2,49.14,43.7663,-5.3736
Ca2MnTc,46.6512,40.6778,-5.9733
Er2TiGaO6,11.6937,11.929,0.2353
RbBa3Li,2.3492,2.1276,-0.2215
CaMnTc2,72.911,62.0374,-10.8736
CaMnTc2,72.9789,62.0374,-10.9415
SiTc2Ir,60.6691,55.0632,-5.606
Ce4In12Pd,20.4857,21.4256,0.9399
Sm2CuSnSe5,39.2757,33.6429,-5.6328
V2AgHgO6,22.4249,16.3605,-6.0645
RbPt,34.9055,23.4356,-11.4699
CsHg3Pd,6.6594,8.0561,1.3967
CsGaSe2,28.0931,25.1561,-2.937
LiScRh2C,32.7956,23.3713,-9.4243
Mg2ScCrRh,20.25,15.2214,-5.0286
Pm2PrI6,19.0254,19.6626,0.6372
KHfS2,59.6766,43.6261,-16.0505
TaIn2GaSe,43.9978,36.8765,-7.1213
Pr(PuI3)2,29.6714,30.8961,1.2248
PdSe3,36.7322,30.2905,-6.4418
LaAu,34.911,30.8363,-4.0747
Na(NiIr)2,19.0583,22.7483,3.69
Lu3Pb,38.0829,40.3194,2.2365
CaIr2Br,33.4696,31.2455,-2.2241
TmZn2CrH8,5.0935,5.4719,0.3784
PrLuAl,10.9732,13.5922,2.619
Ca2NiB2Rh5,30.0304,24.5325,-5.4979
YGaCu2,8.7907,7.3045,-1.4862
TbPr(NdTm)2,17.555,20.1978,2.6428
SrCrRePb2,41.5995,38.1559,-3.4436
ScNiIrRh,33.8732,24.7463,-9.1269
K6RbCd2O,9.5322,9.2949,-0.2373
Sr6As2PCl,14.7725,13.6759,-1.0966
Na6Cd2AgO,21.4776,18.7413,-2.7363
K6Rb2PbO,10.5868,10.7736,0.1869
K2Rb6TlO,8.4542,8.0312,-0.423
K2Rb6NaO,5.4153,5.1181,-0.2972
K6Na2TlO,16.9906,15.5652,-1.4254
Hf3CdBi,102.2572,77.0031,-25.254
ZrCu2W,37.7931,35.0135,-2.7796
EuNiSnWO6,29.784,25.8836,-3.9004
SmRhAu2,41.5654,39.7044,-1.861
Sm3Cd2Au7,36.6113,37.8453,1.234
Th2AlSi4Pt3,49.3433,37.8945,-11.4488
Zr4Ni3C5,59.2534,44.3586,-14.8948
ZrNiC3,58.6616,43.0644,-15.5972
Sr7(TlAu)2,26.0334,27.3257,1.2923
TaHg2Se,17.8099,19.4234,1.6135
ErPa3Ge4,33.0274,35.8408,2.8133
NbAsSe3,71.7454,59.4695,-12.2759
SrCrAu3,35.2934,33.6318,-1.6616
RbLi2La,14.4146,10.323,-4.0916
Sr(LiPd)3,6.2956,7.7524,1.4568
Be2ReSb,21.7048,21.3689,-0.3359
Ba2LiPt,24.0932,17.1272,-6.966
BaAg5Au3,33.0835,30.1154,-2.9681
BeReSb2,33.2033,29.8314,-3.3719
Tl5Ag3Pb,44.6309,43.0168,-1.614
Ba6Ag2PdAu,9.4613,9.6762,0.215
Cs2NbTe4,50.7024,45.5468,-5.1556
Ti2Rh2Pb,24.3215,21.7988,-2.5227
Ac5Pt2RhO,53.7726,49.4777,-4.2949
NdSmAu4,39.0257,41.2934,2.2677
Ac5PtPb2O,51.0212,51.6071,0.5859
BeRe4Sb,34.9431,35.6431,0.7
YGaCu,26.3765,23.0336,-3.3429
Er2In8Cu,20.1214,21.2619,1.1405
Co(CuPb)2,33.8954,31.2963,-2.5992
Cs2Tl6BiPd,39.9268,40.7578,0.8309
Cs2Tl6HgPd,34.868,35.8277,0.9597
CaTmAgPt,38.4316,31.5977,-6.8339
TlSb2W,45.3037,42.0845,-3.2192
BaCdCo,12.0349,10.8277,-1.2072
LaSiNi2,19.4477,15.011,-4.4367
AcIn3Pt,42.1548,37.7969,-4.3579
Fe2CuOs,40.3456,33.3123,-7.0332
YbMnSe4,53.7984,44.9607,-8.8377
SmGa5Au7,30.3381,31.5539,1.2158
TlSbW2,44.2043,44.3138,0.1095
Sr6As2PSe,19.456,19.1638,-0.2922
YScCO,91.5958,78.1182,-13.4776
TlSbW,46.4625,44.678,-1.7845
KBRu3,15.9308,16.5126,0.5818
Ba2CdCo,9.1334,8.2399,-0.8935
InTeOs2,37.0779,39.2059,2.128
Ce5BiC3,39.8682,33.8627,-6.0054
RbTaGe,3.0001,5.825,2.8249
C7Br,58.9666,40.1908,-18.7759
Ba2AlGe,12.8916,11.5178,-1.3738
Co3ClF,8.2277,7.5429,-0.6848
BaCa2Te,12.3509,12.669,0.318
Ba3AlGe,10.7675,9.0589,-1.7087
SiNi2Mo,27.8558,24.1225,-3.7332
K2LiLaCl6,5.6166,4.8292,-0.7874
NdDyTm5Th2,32.9888,36.1177,3.1288
TlAsPt2,59.8975,46.8899,-13.0076
ZrTiCr2,34.4066,31.3546,-3.052
Ba2GePPd6,8.8826,10.1114,1.2288
TlAs2Pt,40.1646,34.1602,-6.0044
Co2CuPb,36.2019,31.1095,-5.0924
TlAs3Pt,34.5636,28.9563,-5.6073
Co2Cu2Pb,36.4017,30.7259,-5.6757
CaTbPmDy,21.0973,24.0656,2.9683
MgCdAgBi,26.9276,26.4967,-0.4308
Y7Pb,18.5873,19.8533,1.266
CoCuPb,43.249,37.8987,-5.3503
Np(AlZn)3,12.2822,14.1073,1.8251
In5Rh,24.6548,24.1524,-0.5024
Pu4Pd12Pt,34.2689,34.7004,0.4315
CoCuPb2,41.8677,38.8784,-2.9893
Ac4In12Pd,29.7853,31.3006,1.5152
TaBe3Br,18.1246,14.805,-3.3196
Ca2TeIr,30.9474,27.0186,-3.9287
Pu2CuGeS5,40.9652,33.848,-7.1172
CaAgSb2,32.793,25.8276,-6.9654
AcPm2Sm6Er,24.9476,27.791,2.8434
Pm2HoEr6Tm,24.1117,26.9136,2.8019
Pm2HoErTm6,24.8039,27.3658,2.5619
Al2CoNi2,13.8887,11.9347,-1.9541
TaBe2Br,18.2362,17.2431,-0.993
HgIrCl4,11.3231,11.7881,0.4651
Rb2CdAgI6,18.4667,18.054,-0.4127
ZnIrOs,36.8149,35.6417,-1.1732
K(PuSi)2,29.4567,29.1531,-0.3037
TaBeBr,20.6767,20.4553,-0.2214
RePb3W,48.9015,50.412,1.5105
Mn2Sn2Au,51.9858,45.9735,-6.0123
Ca2ReW,22.9505,26.5372,3.5866
Rb2CdIn6Sn,14.0242,14.5564,0.5322
Rb2Tl6CdPb,35.9937,36.3359,0.3422
Ca2LaTe,25.5519,21.4398,-4.1121
AcSm(CuSi)2,22.892,22.3903,-0.5017
Rb2Tl6CdSn,32.7627,33.035,0.2723
CaReW2,30.963,36.1361,5.1731
Rb2Tl6CdBi,36.1391,36.4497,0.3105
Rb2BaPbI6,15.1125,16.2876,1.175
CaCr2Ag,23.2363,17.8431,-5.3932
Y3GaCu2,22.3476,18.9246,-3.423
Ac2InPt9,78.931,57.2815,-21.6495
MnSnAu2,53.6618,50.3175,-3.3442
K2Cr2Pt,22.1602,15.4336,-6.7266
ZrTaRu,50.3679,47.6842,-2.6836
SmMg2(ZnGe)2,9.6028,10.5815,0.9788
Sm2Ga3Cu4Si,13.6157,12.362,-1.2537
Ho6TmIn2,26.4797,28.7992,2.3195
RbTiSb2,24.4714,20.4769,-3.9945
Rb2SmInI6,17.4092,18.4656,1.0564
K2CuTe,15.5386,16.265,0.7264
TlReIr,45.3365,49.1147,3.7782
TlRe2Ir,43.9682,48.3575,4.3893
Rb2Tl6BiSb,38.4016,37.7309,-0.6707
Rb2SnAuI6,17.6409,18.5163,0.8754
Rb2SnPbI6,17.721,18.7162,0.9953
PrSm2Sb,21.9934,21.4036,-0.5898
Hf2Sn2Os,66.1837,52.993,-13.1907
Tl2ReIr,47.2538,49.2162,1.9624
Rb2BaSnI6,11.9875,13.1241,1.1366
Ba7Mn,12.7167,10.6886,-2.028
Tb5Y3Th,21.839,25.351,3.512
Al3ZnAg3,15.8254,13.8708,-1.9546
Er3Al3Zn,10.3965,14.0642,3.6678
Ba2PmTaS6,32.4393,25.2303,-7.2091
Ba2PmPaS6,35.0611,28.716,-6.3451
RbEr(AuI3)2,25.5804,26.3342,0.7537
Ac2In8Pt,33.878,32.2732,-1.6048
Cs6RbHgAu2,22.5562,22.8001,0.2439
SrYGa3,12.3917,11.7668,-0.6249
Ca2UPaS6,47.1804,38.2572,-8.9232
RbPa(HgI3)2,16.9456,18.9694,2.0237
Bi6PtRhAu2,51.5615,48.6719,-2.8896
LiAu,14.8449,17.2397,2.3947
PrAlS,13.4032,10.6844,-2.7188
SrY3Ga,16.1015,15.1415,-0.96
Sr3CaBr,13.9589,12.2344,-1.7245
BaAg(SnS3)2,36.4019,26.6519,-9.75
AcAg(SnS3)2,42.4053,33.166,-9.2394
Ac2AgSnS6,45.8696,37.3215,-8.5481
LiTl,19.009,22.1118,3.1028
Sm4GaAu3,30.5525,32.4422,1.8897
In2TcSe,45.7113,40.6843,-5.027
Ta2SeO2,16.5271,17.2405,0.7134
Ag2Sb2Au,36.803,31.1657,-5.6374
SmRhAu,39.9071,32.109,-7.7981
SrYGa,10.5494,11.0097,0.4602
GaTeF3,24.9275,21.1762,-3.7513
PrSmHo3,17.0188,21.9997,4.981
CaPaSn2,28.2436,30.9587,2.715
Ac4InPt2,59.2339,54.0683,-5.1656
SrYGa6,10.417,10.3746,-0.0424
Sm4PtAu,33.6276,31.6298,-1.9977
Rb(Sb3Os)4,41.5644,34.7995,-6.7649
Na2CdRu2,21.1038,20.4534,-0.6505
Np4Rh12Au,53.7139,43.877,-9.8369
SbPb,45.0024,42.3419,-2.6605
Sn(BiSe)2,41.4947,38.524,-2.9706
Pd2RuAu,20.2314,24.8999,4.6684
Mn2Al,44.7046,37.0838,-7.6208
Ba2Tl6CdRh,34.3341,34.3728,0.0387
Tc2AsRu,55.5592,48.0927,-7.4666
Sn2BiSe,32.3264,31.662,-0.6644
La6In2OsRh,43.6817,32.078,-11.6036
CaSmCuSi,17.6156,16.4167,-1.1989
Sr4LiY3S8,34.0388,25.1653,-8.8735
U4IrRh12,52.9627,43.5579,-9.4048
Ac2YPu,53.9321,56.5546,2.6225
Tl5InAg3,40.9957,39.305,-1.6907
AgPb2W,77.7232,65.8704,-11.8529
TiAlSb2,20.7093,17.7619,-2.9473
TbY2Th5,41.3611,44.8436,3.4825
LiCaTmPt,30.9077,25.6334,-5.2743
ScVNi,39.7714,34.031,-5.7404
Tb7SmMg2,22.2087,23.8127,1.604
Ti3FePb,17.392,16.9766,-0.4154
SrW3Br,36.9964,33.3046,-3.6918
NiMoAs2,27.7907,24.6167,-3.174
PmSmCuSi,18.3929,19.1717,0.7788
Te2PdRu,29.6295,30.9615,1.3321
BaZrN2,15.8441,15.271,-0.5731
ZrTiCuRu,33.9109,29.3627,-4.5482
NaCaS3,39.6597,29.1554,-10.5043
Y2AgHg2,22.4761,17.9399,-4.5362
CuSi4Se,20.3662,13.9424,-6.4238
U4PtRh12,55.6568,43.7886,-11.8681
La6IrRuAu2,41.534,30.8833,-10.6507
Np4PdRh12,51.9662,42.0063,-9.9599
CoNiAs4,22.0274,13.6987,-8.3287
YBeW,34.5975,23.9437,-10.6538
PmU(AgS3)2,43.3057,34.5195,-8.7862
PmZrCu4,24.9852,23.4403,-1.5448
MnAl2Au,38.1369,34.9128,-3.224
Pb3Au2,46.9334,49.311,2.3776
Sr2YMg2,8.7024,9.1614,0.459
PrH2Br3,2.0943,4.3772,2.2829
Ac6PrIn2,46.7214,49.1803,2.4589
SmCu2Si,8.9621,9.9954,1.0333
InCoSn,6.6672,10.1006,3.4334
CrSn2Ru,16.7858,18.6628,1.877
Cd4RuPb,24.6564,26.028,1.3715
In2SbAu6,40.8686,40.6267,-0.2418
ScVSn2,46.1061,38.8639,-7.2423
BeZn3Si,17.1201,14.6433,-2.4768
YBeW2,28.1659,23.4311,-4.7348
Ba2Zr2N,33.9194,26.6394,-7.28
Cd4SbRu,23.38,22.867,-0.513
Y2BeAg,18.3071,15.8187,-2.4884
Rb2LiPbCl6,8.4547,8.2459,-0.2088
Zr3In3Cu2Tc,50.9785,43.5918,-7.3867
AsIrRu2,28.3165,25.065,-3.2515
GdTiSi3,6.8639,5.3335,-1.5304
Ca2Ni2Sb,15.1288,12.4104,-2.7184
As2IrRu,25.029,22.7186,-2.3104
TaHgRu,17.7889,21.201,3.412
YBeW2,35.9651,23.4311,-12.534
K(Tl4Pd)2,41.2877,42.0311,0.7434
SrCe2PmN4,2.3331,7.6501,5.317
SrCe2PrN4,2.3165,5.1246,2.8081
BaLiIr2,24.0916,25.8249,1.7333
Sm8Al2Au,22.7822,24.5749,1.7926
Ac2AgRhO5,15.2688,15.681,0.4122
NiAs2Os,26.8852,25.6165,-1.2687
Ca2IrW,31.0072,29.7586,-1.2486
LiPrBi2,25.6495,27.433,1.7834
Ni2BiPb,25.9549,29.9298,3.9749
TeRh2Cl,36.2678,28.5654,-7.7024
Rb2Y2USe6,33.8058,28.9156,-4.8903
BaAlZn2,13.8601,11.1357,-2.7243
Y2BeAg,18.1825,15.8187,-2.3638
PrNd3O,17.1692,16.556,-0.6132
NiAs2Os,26.7699,25.6165,-1.1534
TlRh2Cl,38.515,31.5459,-6.9691
TlRh2Cl,38.8061,31.5459,-7.2603
Ba(AlZn)2,9.3759,8.2508,-1.1251
Ba2AlZn,11.8478,9.2776,-2.5702
Zr2VCu2,61.0068,49.4365,-11.5702
Sc(GePd)2,15.5175,14.1933,-1.3242
CdCoOs,23.1626,26.8578,3.6952
ErZn2Rh,23.0182,20.7743,-2.2439
Se5Cl,41.4815,32.5701,-8.9114
Sm3AuI7,24.579,26.5487,1.9696
Ba2AlZn3,8.2691,7.2775,-0.9917
YTlHg4,16.6635,15.0426,-1.6209
Pm2MnCrS6,41.8921,32.1411,-9.751
ZrAl2Sb,37.1705,30.5184,-6.6521
Cs2UWS6,42.4565,33.8605,-8.596
LuZrInCu,39.441,36.4969,-2.9441
SrOsBr2,17.7842,18.5977,0.8135
YTa3B,65.3456,58.7053,-6.6403
Ba2PtRhO5,8.5842,5.9193,-2.6648
Ac4Cu2Pt,51.3796,48.7828,-2.5967
Ac3(SbPt)4,65.487,51.6265,-13.8605
AcGa(CuPt2)2,55.8173,41.4482,-14.3691
Y2CoPb,40.6633,37.6845,-2.9788
K2CrOs,20.1731,19.9762,-0.1968
SrNbBi2O,52.8647,48.3544,-4.5104
PaIn(PbS3)2,52.591,43.3421,-9.2488
Tl6In2Sn,40.6109,41.65,1.0391
Nb4Si2N,84.907,68.6652,-16.2418
RbGa(SnS3)2,34.5817,25.784,-8.7977
PrInAs,2.6411,6.4491,3.808
BeTl2Pb,36.3749,39.3174,2.9425
Rb3Y(USe3)2,35.8004,31.8126,-3.9879
In2HgGeS6,34.737,26.7701,-7.9669
SrZr2CuO,44.6279,35.6904,-8.9375
Y3Te4,28.6256,27.5238,-1.1018
YRe2W,43.1236,38.1276,-4.996
BaSb(TeS3)2,46.5863,35.329,-11.2573
RbIn2GeS6,35.2629,25.8327,-9.4302
Tc2As2P,41.9459,36.0832,-5.8627
Na2YThTe4,36.001,34.6247,-1.3763
Pm2SmYSe4,33.3518,30.1678,-3.184
NiBiSb2,42.834,37.0289,-5.8051
SiNi2Sb,22.8483,18.055,-4.7933
Th2Si3PdPt12,70.1247,49.0095,-21.1152
Y2Mn2Re,44.8565,39.8556,-5.0009
YMnRe2,48.7921,48.8816,0.0895
FeCo,1.471,2.1694,0.6985
Ce2PaPdS6,46.341,37.5323,-8.8086
Zr2CuPt,72.9238,55.8564,-17.0674
SmAgRhAu,37.6947,33.9754,-3.7193
Ac(HoIn3)2,26.319,28.3009,1.9819
NaTbBi2,39.6211,40.3873,0.7662
B3WN3,0.0,0.1158,0.1158
Sm3(AgAu3)2,37.8446,38.047,0.2025
Zr2MoAs,55.3732,46.785,-8.5882
NpV4Sb,105.2964,85.1973,-20.0991
Ca2PtW,34.907,29.5755,-5.3315
Sm4AgAu3,33.4757,34.4579,0.9822
NdU(TlS3)2,47.072,39.8689,-7.2031
TiBiPd2Ru,22.801,24.4224,1.6214
La(TbIn3)2,24.4441,24.0865,-0.3575
Hg(Sb3Rh)4,42.8334,32.1082,-10.7252
LiMgCdBi,18.9697,20.1953,1.2257
KTlRu2,25.0946,26.3036,1.209
Tb2PrSm2Mg,13.2686,16.9387,3.6701
Ti3RuSe6,31.0795,26.1238,-4.9557
V2CuSi2,52.4196,40.2259,-12.1937
CaYCu2,23.0861,18.3457,-4.7404
Ac(PrIn3)2,18.8805,20.8201,1.9396
RbAlGe,14.9965,12.8536,-2.1429
Na3InCo,20.9084,18.0859,-2.8225
CaY3Pb,24.0185,22.819,-1.1995
PmPa(PbS3)2,52.5595,44.6514,-7.9081
CrRe2Sn,19.4447,23.2177,3.7731
Cr2ReSn,12.3568,15.9505,3.5937
Hf5AgBi3,101.4954,79.1819,-22.3136
Cs2NaMoBr6,14.5297,15.3293,0.7996
Tl3MoAs,36.7138,37.1387,0.4249
CeU2CrN5,12.0054,14.7251,2.7197
Ca4YPb15,41.8151,42.0731,0.258
TaBi3Ir,50.105,51.3858,1.2808
Ac2U3CuPt12,78.0807,58.9571,-19.1236
TaBiIr,45.0634,49.1252,4.0619
Rb2SmUS6,36.8916,30.2005,-6.6911
TlInTc2,64.8293,59.2671,-5.5622
Tl2InTc,54.366,51.828,-2.5381
YReC3,63.5894,48.6623,-14.9271
Cu2RuAu,20.1184,21.9408,1.8224
U2InAu6,48.8431,49.9905,1.1474
Sr3TlGe,20.5247,21.4985,0.9738
Cu3RuAu,18.6397,19.2964,0.6567
Ba2PtF,22.9824,16.3248,-6.6576
CePrAgOs,23.2543,24.9751,1.7208
BaPm2RhO5,1.8543,3.9994,2.1451
FeTcP2,40.697,37.0708,-3.6262
Ca2TeRhBr,21.8003,18.8378,-2.9625
Er6Tm2In,24.2651,27.2501,2.985
Y(MnAu)2,61.5371,54.8014,-6.7357
K3SiRu,17.3932,13.3916,-4.0017
TbNd(ErTm)2,24.538,28.6154,4.0774
Ba2HfScS6,44.7967,32.5749,-12.2218
Np(CoP)2,29.2311,25.7494,-3.4818
ZrTlMo3,40.9077,37.5302,-3.3775
Ac2InSi3Au4,37.6794,36.7485,-0.931
Ac2Si2SbAu6,43.949,42.7531,-1.1959
AlBiBr2,20.0139,21.4,1.3862
TlMo,3.8987,11.9098,8.0111
AcYMgAu,32.7185,34.4761,1.7575
BiP2Ru,13.5798,17.145,3.5652
HfBi2Rh,75.6008,63.2394,-12.3614
CsLiPS2,32.8454,26.1728,-6.6726
Pm8Co3CBr3,24.9744,22.5401,-2.4343
Pr12Sm6Ho,6.4899,7.5424,1.0526
TbPmNd3Ho,20.9278,24.4279,3.5001
Nd4PS2N,33.2836,29.0902,-4.1935
ZrTl,58.1586,53.5351,-4.6235
ZrTl3,58.9521,57.0202,-1.932
CsAc2PbO4,17.8394,21.5356,3.6962
Sr2TiAgO5,1.0805,2.2461,1.1656
ThTi(SiPt)2,45.5947,34.6013,-10.9934
Mg5Ru4,9.6861,11.2574,1.5713
Ba2YIn,33.1365,28.9576,-4.1789
MgZrTl,50.8176,44.9843,-5.8334
NaTiPS2,35.578,30.3693,-5.2087
MgTlMo2,21.939,24.0815,2.1425
NaScPS2,47.343,35.3061,-12.0369
Zr2Mo3,38.93,35.5592,-3.3708
ZrMo2O,38.3735,35.6092,-2.7643
Zr2Tl3,65.0022,59.2208,-5.7814
Ni2OsSe6,38.0002,31.9606,-6.0396
Na2TbFeO4,14.5554,15.1029,0.5474
SmY5HoEr2,14.8192,17.1211,2.3019
Zr2Mo,70.8108,59.5916,-11.2191
Ac2SiSn3Au4,39.8447,39.6252,-0.2195
Zr(MoO4)2,22.7102,18.9666,-3.7436
KHfTc2,86.564,69.3555,-17.2085
Th2BeSi3Ir4,38.4155,37.7619,-0.6536
Zr4Tl5,72.0452,62.9346,-9.1106
KSi2S,25.525,18.0175,-7.5075
AcTaTlO5,10.1231,13.1102,2.9871
Zr2Mo,61.3811,59.5916,-1.7895
BiRu3Br,28.8191,27.3801,-1.439
Y4Ho2N,31.5968,30.0648,-1.532
ZrAu4Br,49.8822,47.9709,-1.9113
NaSbRu,23.5513,21.6962,-1.8551
ZrMo,37.487,40.8671,3.3801
YEr5Tm2Th,27.2671,29.6711,2.404
BiRuBr2,28.5603,28.6041,0.0439
NiHPd,8.0948,10.1497,2.0549
Zr2Tl,76.0146,65.6974,-10.3172
ZrTaSe2Br,49.0206,40.9746,-8.046
YHoSeN,48.606,42.7397,-5.8662
TlMo2,20.4061,26.6768,6.2707
TlMo2,20.0792,26.6768,6.5976
SrCrS2,35.5867,25.7293,-9.8574
RuBr2,20.0962,18.48,-1.6162
Ac2Si2Au,35.3707,36.5016,1.1309
YHoZr2N4,42.2802,35.5646,-6.7155
ZrTl2,62.4139,59.3678,-3.0461
NaSrUO4,13.0161,15.5696,2.5535
Pm2Er6Tl,30.7305,32.8729,2.1424
Ac2Si3Pd4Au,28.8028,27.8241,-0.9788
ZrTlMo2,45.1278,43.1351,-1.9927
Ca2NdIn,10.3647,12.6368,2.2721
BiRuBr3,25.814,24.0018,-1.8122
SrScRh2,28.624,22.9456,-5.6784
Nd3ErGe2C,25.4823,24.5265,-0.9558
MgTl2,32.6432,35.249,2.6058
ZrTlMo2,45.4353,43.1351,-2.3002
ScAlIn3,16.9178,15.1073,-1.8105
Ac8Bi4Te3As,53.181,54.7612,1.5802
Ta2CuSe,33.0964,35.1077,2.0113
RbPS2,36.5484,28.1238,-8.4246
Th2Be3Si4Au,36.5589,32.9802,-3.5787
Y2CoNi2,71.0149,59.0098,-12.0051
NpGe2Rh,34.1415,33.3103,-0.8313
NaPS2Br,32.0884,27.6075,-4.4809
BaCd2RhO5,9.6568,8.7292,-0.9276
Ac2Be(Ni4B)3,11.31,14.0269,2.7169
ZrMoO2,42.6319,37.0352,-5.5967
Zr4Tl,89.7031,72.7466,-16.9565
Tb3PrHoTm,18.1115,20.745,2.6335
Ac2B3Rh12Pb,52.0874,43.8472,-8.2403
Sr3MnGe,30.2893,26.7978,-3.4914
SrCrP3,27.4205,22.6707,-4.7498
Ac2Si3GeAu4,36.6049,35.6675,-0.9374
Na6Al,22.1298,17.8918,-4.238
NaSmSnHg,17.0844,17.1684,0.084
Hf2BiRh,97.655,75.0271,-22.6278
NaAl,12.9601,11.2749,-1.6853
ZrTl2Mo,54.1919,50.7078,-3.484
NaAlSi,24.1113,20.8805,-3.2308
PrDy2(FeSi)6,12.8821,10.1492,-2.7329
SmNpTc4,77.8329,70.1291,-7.7038
Ac2Cu4Si3Au,25.5746,24.6651,-0.9095
SrMgCu,11.4949,9.3802,-2.1147
NaAl,11.5476,11.2749,-0.2727
ZrTl,69.1179,53.5351,-15.5827
Y(CoNi)2,50.5069,41.0536,-9.4533
Pr7Y3Ho2,7.2498,8.0239,0.7741
TiNb4Ir5,78.2973,71.4115,-6.8858
SrAcSiAu,45.4743,41.3424,-4.1319