Formula,E_hull_DFT (eV/atom),E_hull_ML (eV/atom),Delta (ML - DFT)
Ca2EuPa,26.769,29.0975,2.3285
Ge(NO)2,1.7438,5.4851,3.7413
Ni5Pb,14.1004,16.0774,1.9771
LiAl2Pb,17.8233,17.7277,-0.0956
SnPW2,83.2305,73.0731,-10.1574
LiAg(H3Rh2)2,19.5009,13.7927,-5.7083
SiAsBr2,22.8485,19.5457,-3.3028
LiAl2Pb,17.7388,17.7277,-0.0111
PmErLuPa,39.1371,42.5305,3.3934
NbTlB2C,62.5314,52.6144,-9.917
PrTaAl4,8.3187,9.8108,1.4921
HfTlSe2,65.9536,53.6494,-12.3042
Ta3VS,79.2218,64.5376,-14.6842
Li2AlPb,16.9692,16.5774,-0.3917
TcAsBr2,31.5102,28.0787,-3.4316
LuScAu,28.1916,30.9674,2.7758
Sc2CrW,22.7618,22.5564,-0.2054
Ac2TiSn3Pt4,58.0985,45.7887,-12.3098
Cr2ReW,24.0929,27.2019,3.109
FeBi2Au,35.0619,41.3257,6.2638
ScCr2W,23.6568,22.4774,-1.1794
Pr12Nd6Sc,5.1504,6.2988,1.1484
CuRhPb,36.408,33.7358,-2.6722
ScCr2W,23.5348,22.4774,-1.0574
CaOsRh2,30.4137,26.0151,-4.3986
Pr5Nd3Tl,7.2147,9.7573,2.5425
LiEu2Au,25.6859,27.072,1.3861
ScCrW,28.4323,28.0364,-0.3959
YbAlSi,18.7584,18.9319,0.1736
SrAc2Pt9,78.1907,58.1059,-20.0848
TbThBi,42.8312,47.4813,4.6502
AlV2CdC,70.6209,54.5674,-16.0535
PrThZr,53.3229,50.4276,-2.8953
TaIn2Pb,32.7342,34.4939,1.7597
TaPRu,0.0,0.0,0.0
Li2UTa2O7,21.3782,20.3903,-0.9879
RbGaRe2,24.6502,26.4815,1.8313
InSi2Ir,23.3474,23.3938,0.0464
Rb2YNb,41.4236,34.566,-6.8576
Ac2TiSi3Pt4,52.6481,40.3916,-12.2565
CsAg3Ir,33.0245,28.6349,-4.3896
MoPbW2,36.8844,41.6636,4.7792
TeIrSe,45.5925,43.4135,-2.179
NbAs2CSe,67.3983,55.2481,-12.1502
NiBW3,33.0238,31.9701,-1.0537
Ta3AsC,25.2817,28.3847,3.103
VTe2I,58.9549,51.6188,-7.3361
Na(BeCu)2,14.7549,10.38,-4.3749
ZrSe2Br,50.7109,43.7974,-6.9135
ReB3Cl,11.6999,12.7165,1.0165
Cs3TeIr,32.0609,32.0583,-0.0026
NaHf3Be,93.0732,65.982,-27.0912
Si2SbIr2,31.9034,28.9359,-2.9675
ZrTa2As,36.59,39.5428,2.9527
CoPbAu2I,37.9361,36.9659,-0.9703
AgTeIr2,40.4374,40.3946,-0.0428
Tb2TlSb,36.5616,36.6429,0.0813
AcSnI,35.5728,36.8678,1.295
ZnMoP2,9.7154,8.4662,-1.2492
GaAgGe2,11.2625,12.1599,0.8974
AgTeIr2,40.6406,40.3946,-0.246
Li2PtAu,34.2367,28.3296,-5.9071
HfTeS4,68.1114,51.1719,-16.9395
AcTh2Pt,71.3216,67.0815,-4.2401
Ba2CdGe4Au3,19.337,20.5652,1.2282
AgTeIr,39.5023,37.6437,-1.8586
Zr3SeBr,71.3996,58.5786,-12.821
Nd2TaGe3Ir4,28.0318,30.8167,2.7849
AsPAuC2,38.2859,29.6404,-8.6454
AcZn(SiPt)2,46.4536,35.7652,-10.6884
LiNdZrRu,34.7797,33.3671,-1.4126
KNaPt2,50.5593,35.9989,-14.5604
RbFeCo,11.8069,8.8522,-2.9547
Rb2CoMoF6,6.5202,7.0977,0.5775
Cs2YPt,34.7113,30.0586,-4.6527
CaAlCo,21.4841,14.4743,-7.0098
ScTlAg,28.8955,27.9369,-0.9586
GdTe2Pb,40.7429,41.2888,0.5459
ScTl2Ag,34.547,34.5898,0.0428
Ac3Si2Pt9Pb,71.4539,53.8373,-17.6166
Y2HgIrC,40.5102,33.3445,-7.1657
CsCaSn3,19.3205,20.0636,0.7431
Pb2WN,31.9899,35.2639,3.2741
Tm11In9Hg4,21.0179,22.4054,1.3875
YHg3Os,18.9142,17.1297,-1.7846
K2PI6,16.1932,16.0913,-0.1019
Sm4DyHg2,18.1599,20.2796,2.1197
CsSc(CdI4)2,20.1219,20.8783,0.7564
Os2PdO,40.4573,40.4201,-0.0373
BaPrAg4,19.9947,15.5815,-4.4132
LaZrAs,32.1704,27.9593,-4.2111
GeOs2Rh,35.7993,35.8002,0.0009
HfGe3Mo,38.0074,30.5909,-7.4165
AgPbBr2,31.212,28.7794,-2.4326
SrCa2I6,10.5841,12.4976,1.9135
ZrBiSe2Br,52.623,45.1403,-7.4827
SrSiSe,40.0628,29.1227,-10.9401
PmYHgPd,23.621,20.9045,-2.7165
SrSiTe4,40.3364,34.7045,-5.632
Mg9In4Pb11,28.3488,29.1369,0.7881
Dy11Mg9Ag4,18.5815,18.3601,-0.2213
Na2Si2Tc,30.0965,22.7156,-7.3808
Y2Si3HgPt4,54.2005,39.4034,-14.7971
Tl2IrW,46.9035,49.2012,2.2978
TaIr2Pb,43.9358,47.8073,3.8716
RePtAu2,56.4047,48.9905,-7.4141
TlAg2PS4,43.1931,35.523,-7.6701
PmPuSb4,45.8815,39.8431,-6.0384
UAgSn,28.3654,31.4586,3.0932
In9Sn4Pb11,35.0288,35.7343,0.7055
La2TbCeBi5,47.2936,44.3523,-2.9413
Nb11Ni4Ir9,81.8207,71.6533,-10.1674
Li3PbAu3,25.2528,26.0227,0.77
GdYHgRh,31.6334,26.4635,-5.1699
Li7PbAu2,14.8541,15.5706,0.7165
KSnRu2,12.0743,15.0183,2.944
AgAsPBr2,21.4641,17.7934,-3.6707
CuSnSb,54.2961,45.6217,-8.6744
CsRe2Tc,44.4193,43.7196,-0.6998
SrSi2Te,32.2015,24.2452,-7.9562
EuTlGaAu,33.309,34.8979,1.5889
SrReSi,38.3104,31.8811,-6.4292
La2BiI,44.285,36.914,-7.371
Tb2Tm6S,32.5214,32.8747,0.3533
Y11Mg9Cu4,18.0496,14.582,-3.4676
TiRuN3,24.998,22.2137,-2.7843
Ba4YCr,23.9785,19.538,-4.4405
Sr2SiTc,45.4752,35.951,-9.5242
SrSiPb2,44.3241,36.8968,-7.4273
ReTcPd,40.9013,42.3849,1.4835
Pm2Pu3Ir2,69.9896,63.5512,-6.4384
YCr2TcHg,53.6868,43.6059,-10.0809
SrSiTc,55.004,42.4989,-12.5051
YTmTcHg,68.9262,59.2633,-9.6628
GaCoNF2,49.9241,43.4736,-6.4505
SrSiTc2,65.2664,51.1177,-14.1487
SrSiTe,38.2128,29.9963,-8.2165
Rb2MnGeBr6,17.7103,15.058,-2.6523
Y4HoAg5,23.705,21.288,-2.4169
CoReS3,44.1471,34.4937,-9.6534
Ba2ScCd,3.9685,6.1737,2.2052
CoReRh2S,41.5549,32.9464,-8.6085
SrCoSi2Os,26.5237,21.7608,-4.7628
SrTl2Si,40.7198,35.9435,-4.7762
Sr2CaSi,24.3535,17.1911,-7.1624
CoRe3S,38.5991,37.2253,-1.3739
CeGa3CoCu,16.0504,14.5633,-1.4872
Ga2CoCu,18.6134,15.9298,-2.6836
SrHfSiTe2,61.5053,46.0809,-15.4244
K2ZnOs,19.5119,19.677,0.165
Sr3AlSi,20.8113,17.4889,-3.3223
Pr3YHo5,12.8799,15.0657,2.1858
Tm2Rh3S4,47.4364,35.6099,-11.8265
Co2ReAsS,32.1317,26.0538,-6.0779
GaCo2CuW,27.9823,24.1526,-3.8297
Ba(SrSi)2,25.4093,17.0317,-8.3776
SrMnSi2,40.9951,33.0662,-7.929
TbHPt3,40.5879,29.1049,-11.483
CoAs2SBr,24.8259,18.773,-6.053
ZrGaCoCu,45.2868,37.3518,-7.935
PmY2I,18.5956,20.8586,2.263
CoAs2SeS,42.6631,34.8597,-7.8034
Sc8CuTe3,8.9973,8.9407,-0.0566
Sr2MnSiSe,46.9853,34.7021,-12.2832
MgSc3N,0.0,1.1026,1.1026
CaSi2Te,24.1118,18.9115,-5.2003
PrGd2In,18.2748,21.0328,2.758
Zr3SbN,69.9939,57.0462,-12.9477
YHgRu2,20.9465,19.1694,-1.7771
SrTcN3,16.4618,13.2395,-3.2223
Sr3Ac2(ZnPt2)2,48.5754,39.6309,-8.9444
TiCdCoNi,38.7779,31.3499,-7.4279
CaAc2HfS6,53.3442,41.6826,-11.6617
Nd5Sn3S,20.3018,21.7396,1.4378
Sr2SiSn2,21.4436,18.2428,-3.2008
Cs3Er(NpSe3)2,42.919,39.5496,-3.3694
WI2Br,25.0984,25.8385,0.7401
InTcAgSb2,47.1707,38.2008,-8.9699
SmSnS14,48.013,34.471,-13.542
V2SI,84.5905,66.354,-18.2365
AcSn2GePt2,48.4933,40.2855,-8.2077
ThAl2Co2B,30.2893,23.6138,-6.6755
Ba(CaPb)2,19.4481,22.0194,2.5712
Ba4Ga4GeS12,30.2142,20.437,-9.7772
Sr7ZrN6,0.0,0.0,0.0
Na2HfV,77.4643,58.3211,-19.1432
TcRuN2,52.2912,46.3906,-5.9006
Rb2Np6Ir4S17,45.4634,38.0825,-7.381
LaAl2W,23.9995,22.5007,-1.4988
HfRhSeN2,49.1645,35.9731,-13.1915
LaAlW2,33.5229,32.5502,-0.9727
Sr(CoSi)2,13.6991,10.4143,-3.2848
AlPBr,27.4734,23.1283,-4.345
V2CuNi2,48.7939,40.9744,-7.8195
RbMn3Sb,69.9329,52.6104,-17.3225
RbMn2Sb,62.1509,47.3138,-14.8371
U(CoAs)2,19.3731,19.5551,0.182
CaNi2Pb,23.8667,20.418,-3.4487
Mn(InTe2)2,43.6681,39.4083,-4.2598
NaTbPmAl,19.701,20.6795,0.9785
Y2HgRh2,32.9056,23.4579,-9.4477
BaCa4Ru,6.8089,8.0002,1.1913
Co2CuBO,18.7885,14.677,-4.1115
PrGd2Zr,38.1596,35.3155,-2.8441
UCoAs2Ru,20.8742,20.8352,-0.0391
PmCoBO4,0.0,0.4607,0.4607
ZrAlP,49.3014,40.9504,-8.351
SiTe2Se,37.326,32.287,-5.0391
Sr3SiSn,24.2229,19.6408,-4.5821
YTmHgAu,31.4328,29.5958,-1.837
VI2Cl,40.3811,35.2494,-5.1317
Mg9Sc4In11,13.0473,11.8123,-1.235
Pm2Tm2Th3,44.2264,47.7431,3.5167
Mg9Sc4Pb11,25.7975,26.8513,1.0538
Si2TeSe,29.9434,25.8667,-4.0767
La2Tb3Tm7,33.2355,32.0712,-1.1643
SiTe2Se,37.1044,32.287,-4.8174
UCoAs,33.7279,33.9041,0.1763
SrGa2Si,22.3287,17.2194,-5.1092
Ir2WF2,27.8635,27.9013,0.0377
Sr2TaSi,34.7708,25.9013,-8.8695
YHgC2,39.279,28.9576,-10.3214
Hf2CoNi,94.1682,67.5366,-26.6316
SrZrSiAg2,48.3967,35.8029,-12.5937
YHg2Sb,23.3352,18.0607,-5.2746
SrTl2SiOs,43.938,39.5347,-4.4033
UTcSb2,63.3038,55.7664,-7.5375
NaPrEuAl,13.1907,13.257,0.0663
YSn2Pd,56.4482,48.0656,-8.3826
TcNi2Se,38.5984,33.6205,-4.9779
CrInPb2,33.7492,34.6176,0.8684
Sr3BeSe,21.8072,16.9021,-4.9052
TcNi2Se,38.4808,33.6205,-4.8604
CoPtF2,24.4006,19.2321,-5.1685
SrSiGe2,18.4961,13.7427,-4.7534
Sr3SiSn,23.8639,19.6408,-4.223
Sc2RePb,41.7072,35.7077,-5.9995
Zr2SeBr,63.21,53.316,-9.894
Ac2Pm2Tm3,38.8899,40.8202,1.9302
Hf3PSe,97.0851,69.1155,-27.9697
Ce3Co2CuGe6,17.4497,16.7442,-0.7054
CeNdCoCu,31.2706,28.1137,-3.157
Na9Tl11In4,35.7368,34.14,-1.5968
YHgOs2,34.0518,29.4482,-4.6036
Li3FeP,19.0728,13.9279,-5.1449
CeSmCoCu,31.3293,28.0963,-3.233
TbPRhN,27.1109,22.5024,-4.6085
Sr2SiTc,45.3279,35.951,-9.3769
Ac2AlSi3Pt4,56.444,43.2296,-13.2145
Sr2SiTe4,31.3637,28.2709,-3.0929
Cs2Er(AgSe2)2,36.0326,30.9859,-5.0467
CsSmAgO3,7.3359,8.1329,0.797
Pr2Co3CuGe4,12.7243,10.5017,-2.2226
Re2SnI,32.1221,34.6468,2.5247
Ac2Pm3Er2,37.6057,40.0468,2.4411
TiNiOs,13.9001,17.2526,3.3525
SrSi3Ru,28.6566,18.6054,-10.0512
BaRe,37.676,29.5652,-8.1108
Sr2SiGe,19.6251,14.7848,-4.8402
Ba3SbOs,17.3468,16.36,-0.9868
Sr3SiSe,29.3827,22.3222,-7.0605
FePbN3,15.8452,15.1642,-0.681
YHgOs2,34.2793,29.4482,-4.8311
NiPd,0.0,5.8994,5.8994
ReTeSN2,79.2324,67.6962,-11.5362
NbTlAg2P,52.697,44.3766,-8.3204
NpPS4,50.1581,42.6104,-7.5477
Y3HgOs,25.3411,21.7575,-3.5836
CsTeRuO6,17.589,16.2537,-1.3353
PPbS4,43.1485,35.4562,-7.6923
Nb11Ru4Pt9,100.7032,79.0642,-21.6389
Pr6Ag(SnS7)2,36.5366,26.1522,-10.3844
Tb(TlS)3,35.5761,30.2424,-5.3337
Na9Mg4Hg11,9.4555,7.5865,-1.869
CoIF2,7.3225,9.4699,2.1474
Al3Pt,19.2994,15.3941,-3.9053
Cs2CaI6,20.2188,21.4423,1.2235
Nb11Ru9Rh4,86.2681,70.3984,-15.8697
Ac2AlPt,54.8478,49.6472,-5.2006
ScPd2W,17.0872,19.7707,2.6834
RbHfB,49.5815,36.1403,-13.4412
Y2HgGe,27.0571,21.6188,-5.4383
K2SrReSi,28.1323,22.8995,-5.2328
KPr2MnO5,29.5076,23.3989,-6.1087
Pm3(SmHo)2,25.8745,28.2014,2.3269
HfZrSe2Br,69.7889,53.3738,-16.4151
Li(In2Pb)2,27.1742,27.3708,0.1966
Np4PaS5,61.7514,58.2865,-3.4649
YHgGe4,14.4343,12.7374,-1.6969
YZrHg,49.5312,40.1205,-9.4107
CsCa2I,14.3551,15.2529,0.8978
Hf2VGa2Co5,38.8249,30.8456,-7.9793
MgAlSi2,15.8867,13.7607,-2.1259
RuBr2N,32.314,28.8072,-3.5068
Cs3CaMo,19.7955,19.9044,0.1089
HfGaCoOs,49.6051,42.2272,-7.3779
TaRh2Au,45.5821,42.22,-3.3622
Hf3Ga3CoGe2,53.0083,40.0864,-12.9219
HfGaFeCo,49.5117,36.8514,-12.6603
Rb(RhS2)2,46.164,33.7832,-12.3807
Tb2(TmSc)5,19.365,21.1495,1.7845
Ac2P(N2F)2,23.033,23.4348,0.4018
Gd3Ga3CoSi2,18.7963,17.6452,-1.151
Tb3Tm2Sc3,19.5835,21.3006,1.7171
ZrCoHRu2,27.8936,26.2689,-1.6248
Sr12As6N,17.1347,13.1671,-3.9676
ZrScSeBr2,36.0439,29.253,-6.7908
HfZrPaTa,86.6478,74.9462,-11.7016
Ba3Li2Al7,12.8785,8.6487,-4.2298
Sr2VN3,3.0922,3.7135,0.6214
TlCr2Sb,28.9056,26.413,-2.4926
Tb2Pm3Dy2,26.061,28.6143,2.5533
U2Ge2Ru,25.5208,30.7363,5.2155
YZr2Hg,61.7723,50.4999,-11.2724
Y2ZrHg,49.8222,39.5972,-10.225
GaPRuAu2S,30.6381,28.5868,-2.0512
CaNiCN,26.3826,20.6077,-5.7749
Hg2HPd8,12.7704,14.0828,1.3124
Rb(RhS2)2,46.169,33.7832,-12.3858
ReIrW,40.8733,47.4392,6.5659
Rb2CoGeI6,15.7247,15.5303,-0.1944
CaMnTe2N,37.502,32.4887,-5.0133
YZr2Hg,61.8668,50.4999,-11.3669
Hg3HPd6,6.8345,8.9636,2.1291
MgScB2,1.6238,3.0096,1.3859
TbCePd4,19.6881,22.4925,2.8044
YZrHg2,36.9734,30.3224,-6.651
Pm11Nd4Er9,26.5443,28.131,1.5867
Cd2CoGeI,16.2203,16.9112,0.6909
ZrAuF3,34.0986,30.8015,-3.297
Sc(Zn2Ge3)2,12.7828,11.6927,-1.0901
CoGeI2,12.5817,14.5939,2.0122
Tb4Pm9Nd11,25.0829,26.692,1.6091
SrTc2As,57.1058,46.0966,-11.0092
CoGeTe2I,24.9832,24.4295,-0.5537
Tb9Nd11Dy4,25.8904,27.5156,1.6251
H(Pd2Pt)3,32.3632,26.8845,-5.4786
YHg2W,23.3042,20.8421,-2.462
Zr3AuF,69.6405,59.4959,-10.1446
SrZrAs,47.6295,38.1443,-9.4852
SrTa2As,32.2351,28.6141,-3.6209
Rb2HgBi2S5,27.8786,21.7478,-6.1308
POsAuS2,42.7224,39.332,-3.3905
SrAs2Pb,22.1921,23.9952,1.8031
YHgW2,32.9776,31.9854,-0.9923
ZrSbSeBr2,48.7781,40.8707,-7.9074
ErHgRhPb,32.3815,30.5006,-1.8809
Mg3ZrI,26.7518,23.2059,-3.5459
Sr2ReAs,33.1652,24.394,-8.7712
YHgW3,36.192,34.9988,-1.1932
Rb2YCuCl6,17.797,17.444,-0.353
SrIn3Co,15.6624,17.0984,1.436
NaAg3S,35.2774,25.9564,-9.321
SrAsN2,11.419,9.71,-1.709
CsRb2SiP2,13.7912,9.7146,-4.0767
TiGeI2,15.9958,16.6249,0.6291
BiPIrSN,31.9541,29.746,-2.2081
Sr3Sm5Te12,19.0524,20.3486,1.2962
Sr2HfO4,-0.0,-0.0,0.0
OsPbAu2,47.8895,49.7356,1.8461
Y2HgW,36.0785,30.1327,-5.9458
NaAg,17.5074,10.5728,-6.9346
ZnSb2Pd,29.3639,25.027,-4.3369
YCo2HgGe,23.8088,19.5396,-4.2692
SrTlAs2,22.1854,20.9899,-1.1955
Nd9Er4Hg11,13.6163,14.921,1.3046
PaSnGe,25.6973,30.8489,5.1516
CsTa2SnOs,35.227,36.942,1.715
Li2TlPb2,28.375,30.422,2.047
CsGa2Ir,16.8565,19.8323,2.9758
Sr2DyNpAs4,24.7572,22.666,-2.0912
Sr3Nd2HfAs6,28.3435,22.2956,-6.0479
Zr2SiOs2,49.3692,45.4809,-3.8882
LaReAs2,28.1962,27.6335,-0.5627
TbScCuRh,37.0094,30.5785,-6.4309
KLaRe2,37.2526,35.4604,-1.7922
Ba2Th(Cu2S3)2,27.5656,22.4232,-5.1424
ZrSi2Os,42.5073,38.6809,-3.8264
PmYHg,24.7928,21.8957,-2.8971
SrCrTcAs2,33.8234,25.8196,-8.0038
SrYHfAs2,42.4943,31.3545,-11.1398
ErTm2Al,23.5298,26.4586,2.9288
LaScRe2,56.5722,45.2325,-11.3397
ScFeRh2Au,48.2202,39.5678,-8.6525
CaPb2Se,60.128,53.0782,-7.0498
Ba3Zr2ScO9,27.9115,24.142,-3.7696
Sr3Th2ZrAs6,31.3394,27.73,-3.6094
Y2ScHg,26.4103,20.6795,-5.7308
Sr3Si2BiPt9,67.4666,47.1044,-20.3623
Mo2IrRu,29.5971,27.8368,-1.7602
CoOsN2O,71.2513,58.7781,-12.4733
CaPb3Se,59.6172,53.5013,-6.1159
MgAg20(BiO4)4,20.6955,17.0615,-3.634
MgAg20(BiO4)4,20.669,17.0615,-3.6074
MgAg20(BiO4)4,20.6812,17.0615,-3.6197
Sr3AsW,29.3367,20.6313,-8.7054
SrNbCr2As,42.0174,32.8674,-9.15
CsTc2NiO8,17.5241,14.5689,-2.9552
TaCoN2O,53.0848,46.9618,-6.123
Cs4Hf2Sb,62.3487,48.3814,-13.9673
NiIr2W,26.5224,33.1724,6.65
Y2BeCuC,37.4779,27.8502,-9.6277
Sr3CrAs,17.3797,12.8588,-4.5208
SrZr3As,67.7165,54.1784,-13.5381
MgAg20(BiO4)4,20.6549,17.0615,-3.5933
SrGe2As,15.55,13.4345,-2.1155
SrAs2Os,23.9475,21.7121,-2.2355
SrRePS2,49.721,37.761,-11.96
LaEu2In,31.8301,28.9958,-2.8343
SrTc2As,57.9708,46.0966,-11.8742
ErGaSn2,19.3882,21.0422,1.654
SrAs2RuSe,35.016,30.3376,-4.6784
YScHg,13.5808,12.363,-1.2178
SrLuAs2,20.6481,19.1658,-1.4823
Sr2TaAs,31.9306,23.1318,-8.7989
Mg2ScBiRh4,32.052,26.495,-5.5569
ZnBiPb2,41.984,43.6356,1.6516
ScGa2PRh,32.449,24.734,-7.715
Sc2NbCuRh,54.8864,42.9585,-11.9279
K2TaZn,18.058,18.7914,0.7334
SmEuPb2,39.1076,41.0167,1.9092
NbOsCl3,40.2114,34.8862,-5.3252
K2TaZn,18.3342,18.7914,0.4573
PmYHg,20.6355,21.8957,1.2603
CaLa3(PmY3)2,26.0953,21.6329,-4.4624
Nb8CuS20,77.593,60.5855,-17.0075
PmY5Hg3,26.0334,19.8629,-6.1705
LaCeThPa,52.8392,51.756,-1.0833
LiIrC2,35.6531,30.0503,-5.6028
VGa2I,42.9123,35.9242,-6.988
SrAsW3,39.1306,34.3484,-4.7823
Pm2YHg3,16.0998,15.3425,-0.7573
Sr2As2Pb,23.6232,19.5382,-4.085
TlPI3,26.12,24.9943,-1.1257
CeNiC2,32.7959,24.4908,-8.3051
Pm3Y2Hg3,21.5313,19.1678,-2.3636
Pd2RuS,27.6477,25.9238,-1.7238
SrAgAs,20.5615,15.1649,-5.3966
SmCoSbO,19.7788,22.1236,2.3448
CaCr2Os,26.2631,23.509,-2.7541
FeSbMo3,27.0796,25.8438,-1.2358
CaCr2Os,25.9414,23.509,-2.4324
Pm4YHg4,13.0366,13.5385,0.5019
Mn3WI,73.276,59.1172,-14.1588
La3TeI,43.7112,32.7686,-10.9426
NbGaRu2,46.1455,42.1756,-3.9699
AcAlGaPt2,49.9703,40.3371,-9.6331
SrTaAs3,22.0293,18.2692,-3.7601
PrLuRe4,31.3835,35.5543,4.1708
SrAsOs2,32.0914,31.4407,-0.6507
Li2Pm4C,23.0936,22.0641,-1.0295
PmY4Hg,20.3585,17.783,-2.5755
In2SbCl2,15.4584,13.8952,-1.5632
LaTeI3,31.8731,28.07,-3.8031
RbSbW3,37.0866,34.848,-2.2386
SrZr2As,60.15,48.4593,-11.6908
LuPaFeCu,45.6595,43.7227,-1.9368
Sr2TeAs,24.3304,21.4659,-2.8645
SrAg2As,26.4787,19.1282,-7.3505
Sr2AsOs,24.4712,22.2578,-2.2134
PmDy4Y2Sc,18.7959,19.7458,0.9499
K2TcIr,41.9566,34.6749,-7.2816
NaAgS3,46.1852,33.42,-12.7652
RbPS4,38.7259,27.382,-11.3439
Ag2MoCl,24.2525,18.0799,-6.1726
Ba(GeMo)2,11.0388,12.5126,1.4738
Sr2ZrAs,38.8745,31.4006,-7.4739
Sr2As2Ru,15.1205,11.4438,-3.6767
Sr2HfAs2,40.0895,27.1703,-12.9192
SrAsRu2,19.2076,17.4247,-1.7829
DyScCu4,20.1777,18.6205,-1.5572
Y3HgN,38.2663,33.4349,-4.8314
TaMnNiPS,61.9234,55.4916,-6.4317
CsNa2Hg4Bi,15.6024,14.7264,-0.876
Al2PbBr,25.1365,22.147,-2.9896
SrTcAs3,31.1635,24.9914,-6.172
Ca(IrRu)2,34.3877,28.8664,-5.5213
CsTaBe,26.4563,25.2106,-1.2457
Sr2ReAs,32.9319,24.394,-8.5379
YTaHgN2,33.318,29.6316,-3.6863
Sr2ScAs,22.7912,18.713,-4.0782
CoSbWO2,31.0521,28.6676,-2.3846
Ta2AsP,30.1387,30.949,0.8103
Sr2ZrNpAs4,33.4399,29.1478,-4.2922
Sr4SmTh3As8,26.0418,23.6614,-2.3804
NaZnI3,20.2782,19.2577,-1.0205
ZrTaAu,60.8494,57.918,-2.9314
Y4HgSbN,33.2452,26.0794,-7.1659
Tb3Tm3Sc5,18.7556,19.798,1.0424
Y3HgN,38.6535,33.4349,-5.2186
SrMn,23.8356,18.293,-5.5426
Sr3CdMo,17.8955,16.7484,-1.1471
NaZnInSn,18.2024,18.1859,-0.0165
Na2Bi2Au3,42.6846,41.8453,-0.8393
BAs2I,7.6574,9.6473,1.9899
CuHgRh3,32.6416,23.5133,-9.1283
ScTi3Os4,22.7785,26.5517,3.7732
NaBi5Au4,48.6145,49.0196,0.405
SrCaCr3,19.6454,13.9958,-5.6496
SrZnRu,0.8357,5.9793,5.1436
Y2HgBi,38.4362,32.8729,-5.5633
K4CoIr,17.631,17.789,0.158
AcDy2Ho6Er,27.5766,30.2105,2.6338
LiNb2(HgSe3)2,52.3198,41.8579,-10.4619
Be2HgIr,11.2441,13.9198,2.6757
YHgSN2,38.0402,29.7793,-8.2609
Cu2HgRh2,22.6148,17.551,-5.0638
PaAgSn,34.1034,35.2956,1.1923
SrAlAsN2,17.5749,13.9988,-3.5762
Zr11Ga9Ni4,48.8893,41.2891,-7.6002
ZrTlAg,60.1696,52.7642,-7.4054
Ba2CaPb,11.8453,14.9103,3.065
NaCoOs,18.6332,22.6748,4.0417
MnPOsS2,53.415,45.4035,-8.0114
CsTaBe3,21.8987,18.8015,-3.0972
Y2HgIr,35.6217,30.232,-5.3896
Li2Dy3Cd7,17.9747,19.0749,1.1003
SrEuInBi,28.4718,30.2694,1.7976
Na(Te4Au3)2,43.0098,41.058,-1.9517
SrTa2AgAs,32.809,27.5117,-5.2973
BaSc3Cr,13.1291,10.9493,-2.1799
Li2Ce3Pt7,57.651,42.3213,-15.3297
Dy3Hg5Pd,10.4453,12.0018,1.5565
KP2SCl,18.1652,17.129,-1.0362
LiMn2SbC,60.9498,45.5171,-15.4327
SrSn2As,16.9727,16.2752,-0.6975
SrCr3As,16.3491,11.4345,-4.9145
InAs4Au,18.2674,18.8922,0.6249
YHgIr2,34.2676,33.6037,-0.6639
CdCu2Mo,24.1366,19.5393,-4.5973
Sr2AsW,28.2543,20.4184,-7.8359
SrPmSe2,32.3327,29.1948,-3.1379
MnVS4,75.2223,56.5764,-18.6459
PmNd2TmSc,18.9043,20.421,1.5167
YHg2F8,9.1421,9.1376,-0.0045
InRh,29.0522,25.4423,-3.6099
Eu2HgGe,19.99,17.7698,-2.2201
ReHg2As,13.2206,15.0032,1.7827
K3ZrSn,32.0564,27.4849,-4.5715
SrSiAs,30.0417,23.1154,-6.9263
SiTc2Rh,62.1076,49.9119,-12.1958
YGaHg2Os,20.5166,18.7565,-1.7601
Y2BeHg,25.1832,19.4986,-5.6846
TcSbF3,32.3688,26.6779,-5.6909
LiSm2OsC,38.7594,31.3691,-7.3903
InP2SeS,28.2396,26.3834,-1.8562
BaAl7,7.4947,6.5874,-0.9073
NaTm2Ag,29.4834,27.8144,-1.669
BeRh2Au,36.4333,30.5932,-5.8402
Cr4NiPb,23.3057,22.346,-0.9598
Cr2IrPb,30.0322,29.9979,-0.0343
LiTbFeC,32.5727,28.3103,-4.2623
Ga2Ge2Bi,14.5079,16.5888,2.081
GeOs2Au,29.0706,33.5906,4.5201
YTcN3,41.1544,34.5831,-6.5712
LiNiC,6.6121,7.0936,0.4815
Sr(GeBi)2,28.3517,29.4674,1.1157
Rh4PbS8,53.7158,40.7554,-12.9604
SiTc2Rh,62.2208,49.9119,-12.309
K2TiSi,8.2941,8.5759,0.2818
LiY2HgF,21.0157,15.8417,-5.174
LuPaFe2,43.6489,38.7734,-4.8754
La(AlIn)2,15.6752,14.8932,-0.7819
ScSb2F,22.2077,18.5006,-3.7071
Ca3SbW,21.6758,19.3596,-2.3162
Pm3Dy5,26.4302,28.5649,2.1347
Pr2Er2Tl3,28.5719,30.8952,2.3233
LaAlIn2,19.9092,18.3766,-1.5326
SiTc2Rh,62.0227,49.9119,-12.1109
Na(TcRh)2,54.8284,43.9277,-10.9008
PrScGa2,14.6581,0.0,-14.6581
SiTcRh,52.0176,41.3009,-10.7167
GeMo2Br,8.2182,11.5453,3.3271
MnNiRu2,52.7711,49.8764,-2.8947
AlSnF3,22.546,18.8812,-3.6648
YPuHg2,30.2674,28.0312,-2.2362
CsTaC2,48.3491,38.7863,-9.5628
LiAsCBr2,27.7738,22.3057,-5.4681
Co2ReAs,0.9754,5.3388,4.3633
Pm2NdSmSc,17.677,20.0145,2.3376
USb2As,41.9484,38.1882,-3.7602
Co2ReAs,24.5153,5.3388,-19.1766
Y4Hg3Pt,35.8051,26.3503,-9.4548
Li4InPb,13.0568,13.3958,0.3389
Sr2CaRu,14.2115,14.2796,0.0681
Ba2CaRu,5.8398,7.506,1.6663
Li2ZrNi,26.6494,24.0512,-2.5983
Ga(HgPb)2,22.7369,23.8938,1.1568
BaSr2Ru,8.3607,10.7414,2.3807
ZrNpS4,56.8781,47.9137,-8.9644
ZrPaS4,63.9484,52.6773,-11.271
Sr3CaRu,15.3909,14.4482,-0.9426
YHgRh2,37.0974,28.0625,-9.0349
Cs2K3Sn2,17.9166,18.0255,0.1089
Ba2SrRu,8.0092,9.3345,1.3253
VSi3I,39.8572,29.8383,-10.0189
InGeF2,17.6031,18.6599,1.0568
NaV3(PbN3)2,43.1519,38.7802,-4.3717
LiCa2GeC,17.0237,13.7033,-3.3205
Ac2SbN2,34.421,35.0706,0.6495
BaCaRu,7.4898,9.8627,2.3729
Pr5Nd3Mg,2.0838,4.799,2.7152
PaTaTi2,28.6859,32.8959,4.21
LiLaOs2C,39.3207,34.0387,-5.282
Na3CoPt,34.9262,26.068,-8.8582
LaRu3W,51.8088,36.8413,-14.9675
InSn2Sb,26.6222,25.2434,-1.3787
YHg2Rh,24.4681,17.9765,-6.4915
BaCuHg2,0.2701,1.4893,1.2191
La2RePb2,50.7523,44.7858,-5.9665
NaAu3Se,43.0844,40.5633,-2.5211
ErIn2Sb,28.0844,26.9826,-1.1018
SrMn,47.1773,18.293,-28.8843
YHgBr2,17.6935,14.6617,-3.0318
Na2AuSe2,34.7073,30.082,-4.6253
TlSbMo3,30.696,29.9785,-0.7175
KRbBe2Sn,10.2736,7.8832,-2.3904
YHgBr2,17.6869,14.6617,-3.0252
PrEuCu2,9.7231,10.8553,1.1322
Sc6Si3C,26.4598,21.1795,-5.2803
Nb2GeCl,74.23,62.4971,-11.7329
BaSrMn3,63.7434,48.8548,-14.8886
InSn2Sb,26.6205,25.2434,-1.3771
Sr2FeCu,24.6368,21.5737,-3.0632
Al7In,5.2112,6.5057,1.2945
TaOs2Pt,52.3542,49.7041,-2.6501
Bi2SbN2,31.3362,32.2416,0.9054
BaSrMn2,53.8186,42.3839,-11.4346
K2MnBr4,18.9649,16.8945,-2.0704