Formula,E_hull_DFT (eV/atom),E_hull_ML (eV/atom),Delta (ML - DFT)
NbAuSe2,71.7634,60.2385,-11.5249
Y2Hg2Ge,17.8017,15.5902,-2.2115
CaCe(NiGe)4,15.7313,12.267,-3.4643
Cs2BrN2,11.5465,12.0412,0.4947
Sc3CuSb,27.1361,21.5018,-5.6342
Ca11Zn4Hg9,4.0581,3.7438,-0.3142
Ag2P2Ru,12.1893,11.3231,-0.8662
Na(FeOs)2,29.193,26.8705,-2.3226
BePPt,31.7442,25.1226,-6.6216
TcPW4,80.7608,72.9013,-7.8595
ZrBeAs2,33.4042,28.7497,-4.6545
ScSI,39.5238,36.5494,-2.9744
IrPdS4,42.6145,34.0468,-8.5678
TlInGa2Ir,26.0559,27.5293,1.4734
ZrBeAs,41.2664,34.5666,-6.6998
K(SbI3)2,23.6026,21.9568,-1.6458
FeAs2Se,51.6705,45.4547,-6.2158
Ca2PrSmAg4,19.5344,17.2731,-2.2614
NaGd2Sc,22.2385,23.3579,1.1194
Zr2BeAs,55.0632,46.2044,-8.8588
PmLuPb2,40.5213,43.1999,2.6786
Rb2PuSnSe4,35.0855,29.8526,-5.2328
Zr2BeAs,55.2287,46.2044,-9.0243
Pa2CrCo,38.0126,40.7119,2.6993
Ca11Zn4In9,11.6327,11.486,-0.1468
MgPaCo,24.6004,23.9134,-0.687
Ca4Pr9Cd11,8.7247,8.6423,-0.0825
Sc3SiC2,28.5585,23.6022,-4.9562
NdGe3Ir2,16.3427,19.6263,3.2836
V(Ni2H3)2,9.1162,8.0508,-1.0653
V(Ni4H3)2,11.8597,10.9794,-0.8804
NdGeRh,20.3943,20.0776,-0.3166
TmGe2Rh3,32.1849,26.3567,-5.8282
PaTaSn2,36.4594,39.5151,3.0558
Ca2La3Pr7,12.5838,8.7053,-3.8785
NaPuCdGe,31.1899,31.6468,0.4569
Cs2Mo3O10,12.3671,12.4878,0.1207
TaSiOs,31.2683,33.9617,2.6934
TaSi2Os,26.7237,27.7209,0.9972
SiOsPb2,41.3864,41.6436,0.2572
CaTb2TmHg4,7.8234,9.6568,1.8334
SiSnRu,4.2381,3.6114,-0.6267
TlCu3,18.1621,19.5641,1.402
SiOsPb,36.6744,38.0886,1.4142
Pr2Te3Br,16.3336,17.6392,1.3056
NdGeIr2,22.4676,26.9009,4.4333
CuGeRu2,7.411,12.3294,4.9184
CsGaO2,19.2623,18.4761,-0.7862
GaN,4.6073,8.2506,3.6433
BeP2Au,10.702,12.2718,1.5698
TaSiPb2,39.9318,40.3712,0.4394
Ta2TlTe,42.6118,43.7171,1.1052
TaTlTe,44.7498,44.8299,0.08
TaSiOs2,33.9854,37.0475,3.0621
TaSi2Os,18.2415,27.7209,9.4795
As2Ru,0.0,0.3418,0.3418
Ba2LiCu,4.4307,4.6611,0.2303
LaYErSc,25.0371,23.5678,-1.4693
Cs2TmNpO6,5.4276,8.6067,3.179
SnSb2Os,33.1513,33.2132,0.0619
CsP2Ir,19.5816,18.8788,-0.7027
BaSr2Pt,29.0854,24.034,-5.0513
PaPtS4,63.0736,50.0771,-12.9966
Sc3SiC,23.8831,20.572,-3.3111
AsIr3O,30.1005,31.4893,1.3888
Sm2AlGe2Rh5,28.193,22.2023,-5.9907
InCoP2,19.0617,16.739,-2.3227
PbAu2Br,47.1377,45.7141,-1.4236
BaMo2,5.8474,10.1591,4.3117
Pm2MgTl2,26.9524,29.2063,2.2539
PbAu2Br,47.1113,45.7141,-1.3972
CeMg,10.0222,14.9159,4.8937
CrAuBr2,33.3524,31.2994,-2.0531
GeSbW3,35.5757,36.3837,0.808
Y2AlHgN,39.6147,32.3973,-7.2174
NaLuAg2,30.0544,26.6935,-3.3609
LuAsRu,8.052,12.8646,4.8126
MnAlSiIr,49.7896,43.906,-5.8836
Sc2CrAg,20.6725,17.6817,-2.9908
GaSbRh,33.7004,27.9429,-5.7575
S4BrCl,40.558,29.9311,-10.6268
BPS,5.1634,10.4079,5.2444
HfIrPd3,49.1244,41.509,-7.6155
Ta2AgP2,17.2962,17.1125,-0.1837
FeCuNiMo,43.4002,36.2874,-7.1128
RbTaC2,33.6081,27.0146,-6.5935
Ca2InI,10.2195,12.9374,2.7179
U2Al3Co,26.4289,25.8462,-0.5827
FeReP2,47.8923,40.4365,-7.4559
HfIr3Pd,59.9182,52.9951,-6.923
IrPd3Pb,30.7125,31.9164,1.204
LiCeNi2,14.8383,14.2126,-0.6257
ZrZn2Cr,32.0927,27.4469,-4.6457
Ca(SmCd3)2,18.5808,19.4662,0.8855
CaCd2Au,15.5246,18.5119,2.9873
Ba8SnPb2,11.0474,11.9887,0.9414
Cs3AcPa2O9,16.0563,17.1588,1.1025
Y7(CoHg)2,37.123,30.5383,-6.5847
LaBeSb3,38.3507,30.9928,-7.3579
PuCoSbO,29.4172,31.2463,1.8291
Ac9La4Cd11,41.3726,39.6101,-1.7625
Ho9Tm4Cd11,24.2919,25.4874,1.1955
SrAu3C,43.4405,40.001,-3.4394
Cs2Tl6BiPt,47.008,45.1641,-1.8439
Ca2LaYHg4,13.3755,11.3926,-1.9829
Rb2CoTcI6,23.6535,21.9901,-1.6634
SrOsPd2,23.15,25.7746,2.6246
Nd9Dy4Cd11,22.3595,23.4564,1.0969
BaNa(CuBr3)2,12.2314,12.245,0.0136
La9Ho4Cd11,32.6333,27.8139,-4.8193
Ca3Ac7La2,47.6023,46.2473,-1.355
Zr2TlSb,72.8326,64.0072,-8.8255
KRb3F4,4.18,4.0268,-0.1533
BaPa(GeS4)2,44.1888,34.0606,-10.1282
ScCrCl2,22.2266,19.2801,-2.9465
NaH7Pt4,27.8169,19.5378,-8.2791
Ca2YHg3,9.4499,8.741,-0.7089
Tb2LuSc,22.9949,25.9962,3.0013
Ba2Sr,4.888,6.0615,1.1735
As4RuI2,18.6988,18.1804,-0.5183
Er3Lu,30.409,32.9307,2.5217
Sc(BIr2)6,29.5428,29.4391,-0.1037
In3Sn3Au4,30.9018,32.049,1.1472
BaLi2Cu,5.9294,5.8279,-0.1014
TbLu2Sc,24.835,27.8585,3.0235
YZr2HgN,63.3693,53.8143,-9.5551
SbOsS,28.3298,25.335,-2.9947
TbLuSc,21.819,24.7256,2.9066
RbGaSn,7.3139,9.1749,1.861
KAs2RhS8,44.5159,32.6606,-11.8553
TbAuSe2,36.5706,33.8598,-2.7108
Y3HgN,38.6618,35.3713,-3.2905
Al5CuIr4,19.2067,21.9505,2.7437
KLaCu,20.496,16.6133,-3.8827
YHgSb,31.2719,26.6543,-4.6176
ScBeCo2,6.021,5.1736,-0.8474
RbGaSn2,12.9017,11.2631,-1.6386
YHgTeN2,35.1421,29.8693,-5.2727
Sc2Sb5Pd12,26.0578,22.7221,-3.3357
ReN2,98.2617,83.9198,-14.3419
CrTe2Au,35.144,33.7361,-1.4079
Dy2SbAs,20.8379,23.9122,3.0743
LiYInHg,19.0329,16.939,-2.0939
CuAg2HgI6,20.5512,19.5625,-0.9887
Y2ThSc,24.7648,28.1402,3.3753
YHgS2,39.9203,30.7687,-9.1516
Rb2NaTaV,50.2589,38.5936,-11.6653
NaTiAl,14.3362,13.4599,-0.8762
CaLa(YHg2)2,19.1339,15.846,-3.2879
SrYRu2,19.7998,18.2381,-1.5616
Gd2SbAs,16.5402,19.672,3.1318
Pb2WF,35.8898,36.561,0.6712
TaC2,34.224,27.1003,-7.1237
NaTiAl,14.7543,13.4599,-1.2943
Ta(RhN)2,18.2704,15.2354,-3.035
TlPbAu,47.5335,49.0444,1.5108
Sc4Mn2Pd,36.5217,30.8192,-5.7025
Rb2BiCF6,15.8073,14.4035,-1.4038
MnBeP2,28.0394,22.6553,-5.3841
TaSb2W,34.4737,35.1817,0.7081
TaCBr,27.98,27.0768,-0.9032
CeEuAgPt,42.9497,36.7858,-6.1638
PrTl2CuBr6,14.4341,15.6286,1.1945
Rb2AcCuBr6,10.6407,12.0397,1.399
TaAs2C,30.7297,27.4679,-3.2618
ThPa(MnS4)2,64.5587,50.7403,-13.8184
CeTaC,40.7715,37.124,-3.6475
Ba2TaSiC,24.0236,18.9703,-5.0532
LiBeSb,16.0202,14.5433,-1.4768
AsRuPt2,53.8392,40.7472,-13.092
SmTaC2,45.3566,38.6069,-6.7497
Ta3BiC,45.3304,43.539,-1.7913
Ba3TaC,21.4165,17.471,-3.9456
LaYHgAu,36.7481,32.2637,-4.4844
Ca2AcPaAs4,21.5459,23.8511,2.3052
RbNbGa2Te,42.2178,34.3467,-7.8711
TaAg2C,35.3044,31.5976,-3.7068
Be2SiI,31.0895,27.2687,-3.8209
GdTaC2,46.3508,39.5763,-6.7745
Ta3InC,38.1211,36.6719,-1.4492
TaSn3C,33.591,30.4443,-3.1466
CsU2CoO8,12.4262,13.6714,1.2452
Pr2Pd3Pt,21.6531,18.6873,-2.9658
Rb2PuCuBr6,15.1281,14.8112,-0.3169
AlCu2Ir,12.042,14.4115,2.3695
NpTaC,56.099,52.2536,-3.8455
K3UBr6,11.8023,12.3918,0.5895
Na2Tl4In2Pb3,40.8637,40.6173,-0.2464
Cs2NaPmI6,18.9816,19.3598,0.3782
Tl2CuPbBr6,23.6836,23.5367,-0.147
SrS4Cl,41.444,32.5024,-8.9416
Tl2CuBiBr6,20.9044,21.9578,1.0534
TmTl2CuBr6,17.5598,19.1799,1.6201
ZrTl2Sb,61.2738,56.3439,-4.93
Pm2MgSi2,1.1528,3.6368,2.484
TaCI,18.0453,19.7879,1.7426
SrSnAu3,35.7487,36.2538,0.5051
NaLiLa2As,27.8225,21.9736,-5.8489
NbTe2PbI,61.3374,53.2111,-8.1262
TaInNiC,31.1745,28.0273,-3.1472
RbTe2Pd,21.9407,22.6526,0.7119
Tb2DyHg4,11.3624,12.6767,1.3143
YTmTe2,30.9551,30.862,-0.0932
NaTaC2I,42.2494,33.7011,-8.5483
TaW2C,45.4185,43.4597,-1.9587
Y2TcPb,78.0116,69.0313,-8.9803
CaTaC,34.1078,29.9924,-4.1153
RbPd3Se,20.5816,19.1203,-1.4613
Li2TaPC,25.4118,21.2965,-4.1153
Re3NiPb,52.9387,45.1269,-7.8118
RbTa3C,38.9769,35.3503,-3.6266
Zr2TlSb,72.8977,64.0072,-8.8905
Ta2PC,25.2207,25.3203,0.0996
TaTl3C,51.9858,47.8355,-4.1503
TaBeAgC2,42.0699,32.0325,-10.0373
TaAs2CBr,27.3339,23.5455,-3.7884
TaCuGeC2,37.5527,29.3407,-8.212
Sr2Cr2N3,15.9422,13.6266,-2.3156
ScPd5Au8,34.8213,35.4095,0.5882
Na3TaC,36.0607,29.1622,-6.8985
TaInNiC,15.9514,28.0273,12.0758
KTa2NiC,32.3418,29.1721,-3.1697
Y2TcAs,66.9798,58.0678,-8.912
TaAgSb2C,45.3864,37.4389,-7.9475
BaFe2,2.4207,4.3691,1.9484
Ta2RhC,35.8637,33.6724,-2.1913
AlAsAu2,39.3945,36.7218,-2.6726
RbTaC3,48.2345,35.6075,-12.627
HfIn5Ni2,31.9971,27.8175,-4.1795
TaSnRh2C,45.3871,35.3575,-10.0296
YHgGe2Sb,23.3129,20.1899,-3.123
Na2TiPb,29.8855,27.9692,-1.9163
TaW2C,45.826,43.4597,-2.3663
SbAsIr2,29.0453,32.0204,2.9751
Li3HfOs,38.5074,30.6035,-7.9038
Ce2CuGePt6,59.6035,45.649,-13.9545
Ca3NdTl12,40.3459,41.1067,0.7608
AcNi(PS4)2,45.756,37.6643,-8.0917
Fe2PbBr,24.2012,19.5265,-4.6747
Ru2Pt4Rh3,69.5508,51.2679,-18.2829
LiAu7,41.2963,42.4423,1.1459
Y2NiHg,67.5198,55.9962,-11.5236
CoNiS4,52.0721,37.8008,-14.2713
ReHg2Mo,17.6229,16.768,-0.855
Y2NiHg,67.7332,55.9962,-11.737
Tc2IrBr,60.9754,53.7987,-7.1767
BaRh(WS4)2,47.6963,36.6154,-11.0809
BePIrS2,38.1463,30.8151,-7.3312
Ca2TlHg3,9.5694,10.4812,0.9118
TcIrBr2,40.7871,38.6424,-2.1447
Y2Ni2Hg,60.5927,53.5139,-7.0788
LaCe(HgPb)2,26.1365,25.5621,-0.5744
Sn(RuO)2,42.9738,36.5265,-6.4473
CaPm(SmCd2)2,19.2434,21.3842,2.1408
ReHg2Mo,17.1906,16.768,-0.4227
Ca2In16Pd7,17.6436,18.476,0.8324
SrPm3Rh,27.1612,25.1543,-2.0069
BeCuP,0.0,7.7308,7.7308
CoSnRh2,25.3206,21.3807,-3.9399
CsSmS4,39.9777,31.2642,-8.7134
TaRu2N,32.7422,34.3907,1.6485
Ga2Sb2Au,27.4822,25.7383,-1.7439
Cs2BeAs2,13.9618,11.6954,-2.2664
Y2SiHg,35.0875,29.554,-5.5335
Sb2Te2Se,40.9379,35.0925,-5.8454
NaLiBiTe2,32.6637,30.0886,-2.5751
Y(SiHg)2,20.6405,17.104,-3.5364
Mg2ScPd2,11.8529,11.8885,0.0356
Ba2Mo,3.4296,6.0808,2.6512
YSiHg3,17.8458,15.0328,-2.813
NaBeTe2,27.4796,25.4666,-2.0131
LaHo4Tl15,46.1124,46.2771,0.1647
Sm2AlGe4Rh3,26.9446,22.4164,-4.5282
YHgP2Se,25.2147,19.1037,-6.111
PuInHgRh,35.0116,32.8947,-2.1168
Zn2PbSe,29.1007,27.4678,-1.6329
ScCoMo,21.7966,21.0406,-0.756
Ca2Pm2Sb3,23.6637,21.9961,-1.6676
YHgAs2P,22.2769,19.0287,-3.2482
CaY2HoHg4,16.1986,14.3314,-1.8673
NaPS2,36.4809,31.6466,-4.8344
TcRh2Br,51.2057,40.8144,-10.3913
K2ZrOs,42.2796,38.2332,-4.0463
Ac3Y2Hg3,36.4421,34.7696,-1.6725
Pd2RuRh,36.4607,31.4767,-4.984
Ca2YHoRh4,32.9122,24.6699,-8.2423
Ca4SnHg2Ge,6.2235,7.411,1.1875
Cs2TeW2,30.2222,32.2717,2.0495
Rb2GaSnSe4,23.8429,19.384,-4.4589
P2PtSO,39.2613,31.399,-7.8623
CaLaHgRu,17.9804,16.5606,-1.4199
CaLa2SmHg4,16.0052,13.2145,-2.7907
Li2AcNdIn4,22.0272,22.4662,0.439
Ca3In13Ni4,13.6388,12.7579,-0.8809
Y4HgAu2,31.4929,30.3042,-1.1887
Ca4Zn2InGe4,8.9562,9.7229,0.7667
Cs2RbAgO2,9.6205,9.5589,-0.0616
Yb3In3CuSn2,33.2121,32.0534,-1.1587
YHgPd2,21.8447,20.3819,-1.4629
YHgAu2,32.36,32.3109,-0.0491
YHgSe2S,40.6554,31.4973,-9.1582
CaTm3Hg4,11.4656,12.9709,1.5053
Ca2NdAs3Pd7,15.4181,16.0624,0.6443
GdYHg2,19.3778,18.5135,-0.8644
BeGa2Ni,5.7174,7.6285,1.9111
GaHgS4,35.7107,26.421,-9.2898
Th(MgTl)2,34.492,36.3422,1.8502
MnBeRh,42.3697,34.6813,-7.6883
LiInNiF6,2.9494,4.9438,1.9943
MnBeRh2,49.4317,38.8561,-10.5756
VNi3Os,39.2417,34.3942,-4.8475
BeInP3,7.728,7.422,-0.306
CaHfOs2,50.8752,46.1367,-4.7385
Cs2Tl4Ni,36.8708,37.8453,0.9744
Ga3ReNi,30.4826,21.9395,-8.5431
YMnHg2,37.3632,30.4671,-6.8961
GdGaCuNi,15.2604,14.8808,-0.3796
SrPa2PdS8,50.6102,40.8098,-9.8004
CeSnN,26.6617,24.4149,-2.2468
Er4TmS5,41.2717,34.1835,-7.0881
GaNiAsSe2,36.907,32.1005,-4.8065
SiP2SeO,24.8079,18.947,-5.8609
Na2(LiPb)3,25.8505,25.5044,-0.3461
YMnHg,34.0819,28.0477,-6.0342
V2NiOs,76.2263,64.0031,-12.2232
SrPa2PtS8,56.5587,44.5904,-11.9683
Nd2Y2Hg,25.2694,23.0031,-2.2663
Pm4Pr9Ag11,16.5319,14.1127,-2.4191
Sc3SnW,21.8782,20.2138,-1.6644
Pr9Nd4Ag11,16.5115,14.0823,-2.4291
Li(PmPb2)2,36.9886,38.383,1.3944
YMnHg,33.7973,28.0477,-5.7496
ScAlGa2Ni5,15.0034,12.4554,-2.548
Cs2TlF4,17.1662,17.9452,0.7791
BiP2Se,28.1357,26.837,-1.2987
Ga(NiAu)2,21.2923,22.1504,0.8581
NdY2Hg3,16.8127,15.7586,-1.0541
LiTbNi,11.0035,13.4731,2.4696
RePt2W,64.2365,54.7876,-9.4489
ScSn2W,29.3493,28.1045,-1.2448
U(GaNi)3,11.094,13.3174,2.2234
Ce2PuMn2,55.2517,50.517,-4.7347
Th7Cd2Hg3,41.7956,43.1555,1.3598
GeSeS4,47.5302,35.6271,-11.9032
SrGe2Ru,8.7414,9.036,0.2946
InCuN2,2.506,5.8624,3.3564
EuGa3Ni,11.5589,13.0216,1.4627
UGeS4,50.0789,41.5787,-8.5002
YHg3B,41.2025,33.829,-7.3735
Tl2CuNi2,20.9,23.3547,2.4547
PdRu2S,20.0979,21.1885,1.0906
RbNi4S3,24.1678,19.165,-5.0028
CaGa4Pb,15.0109,16.2368,1.2259
ReS4I,43.2611,36.9733,-6.2878
InPIrS2,42.3397,34.6264,-7.7133
YAlHg2,19.136,14.8818,-4.2542
Pr6TlGa2,5.3596,4.5091,-0.8504
SrCd2Sn,18.5236,18.2818,-0.2418
V4Ni2Sb,85.648,65.4909,-20.1572
YTh(AlHg2)2,18.1504,16.437,-1.7134
PaBe2Cu,25.5021,24.8814,-0.6207
Pr6NdY12,9.6022,9.9687,0.3666
TcSb2W,49.0578,44.3153,-4.7424
SrSb2Ru,29.7919,28.2152,-1.5767
Pu2Mn2Ge,38.7964,35.0249,-3.7715
Cd7In3Sn2,19.66,20.4982,0.8382
HoPaS4,52.0611,41.9983,-10.0628
Os2PtPb,57.3561,53.8251,-3.531
YTlHg,30.1795,31.4597,1.2802
AsRu2Pb,26.4186,26.9644,0.5458
Ti3RuW,22.9629,21.2681,-1.6948
K2ZrRe,41.8393,38.0541,-3.7851
PmYAlCd,30.0055,26.737,-3.2685
BeP2IrAu,26.053,23.4459,-2.6071
Hf(MnNb)2,125.2638,97.9063,-27.3574
NbAlB,40.7603,27.1196,-13.6407
Y2TlHg,38.1154,33.7874,-4.3281
Mn2Pd2Rh,56.5854,47.0307,-9.5547
Ga2ReNi,29.7043,22.1343,-7.57
CaMnI,33.9445,29.6197,-4.3249
SrPbBr3,26.8067,24.1169,-2.6898
Cs2AsIr,21.6332,25.5645,3.9313
Ni2Pt3Rh2,48.1554,35.7767,-12.3786
K(SnSe)2,26.0348,22.3834,-3.6514
In(GaNi2)6,7.518,8.81,1.292
Th2PaMn2,71.1398,65.7267,-5.4131
MoW2,31.0424,37.0664,6.024
Ac2Dy7Er3,34.174,35.9371,1.7632
BaMo,0.0,4.7096,4.7096
Zn2TcMo,31.1674,29.019,-2.1484
YTl2Hg,34.967,36.3014,1.3344
NdBeNi,10.1117,13.076,2.9643
Pm3YCd4,20.2955,22.1257,1.8302
Na3La(PmSe3)2,36.9868,30.0732,-6.9135
ZnTcMo,38.7069,36.4767,-2.2302
Ni3AgBr,13.634,13.0206,-0.6134
Y2TlHg3,21.872,19.7104,-2.1616
ScAgBr2,16.559,14.7048,-1.8543
LiLa2ZnO5,31.3647,26.3024,-5.0623
TlReAu,47.163,49.4445,2.2815
NiAg2Br,20.4593,18.1282,-2.3311
Sc2AgBr,13.9844,12.8215,-1.1629
Y3SiI,27.7936,25.4338,-2.3598
GdPuNi2,30.834,30.2403,-0.5938
TaCu4,14.3088,15.6868,1.3781
SmDy2Hg,19.6383,22.2439,2.6056
MnBeBiP,29.1809,27.5953,-1.5857
In2IrOs,31.7281,34.4875,2.7594
SrRuC2,33.3454,26.7474,-6.5979
Cd2InW,24.7252,26.497,1.7717
Ni2AgBr,14.3823,13.8037,-0.5786
RbZn2Os,15.8611,16.7475,0.8864
InIrOs2,37.1536,41.0407,3.887
CdInW,11.2881,19.6402,8.3522
Hf5Cd3,97.0096,70.1906,-26.8189
Mn2AlGe2,45.8484,36.803,-9.0454
In3IrOs,30.0771,31.6608,1.5837
Pr12Ag6Ir,9.042,7.6968,-1.3451
In2IrOs,31.645,34.4875,2.8425
CdInW,10.2342,19.6402,9.406
Cd5Pb3,31.7446,32.6899,0.9453
LiY4Hg,21.9572,19.2537,-2.7035
In2IrOs,31.6315,34.4875,2.856
AcNdEu2,36.4944,37.7167,1.2224
Ca2AlCo,17.4536,12.4456,-5.008
Be3TcI,32.6955,28.7245,-3.9711
Ac2NdEu,45.5023,47.9862,2.4839
LiOs2AuSe,37.4471,36.7989,-0.6482
LiLuAu,26.6038,28.6889,2.085
NaPd5Pb4,32.2315,32.8161,0.5846
LiOsAu2,34.5767,36.662,2.0853
NaLaTePt2,59.8852,45.0286,-14.8566
YNb2CrHg,79.8688,61.9559,-17.9129
Ca2AcPrHg4,8.4121,9.016,0.6039
Li3OsAu,19.1033,19.8696,0.7663
Rb2NdCuI6,13.0085,14.7598,1.7514
Rb2PmCuI6,13.0245,14.7773,1.7528
Al5Re3,16.7628,19.247,2.4842
ReSbOs2,42.5174,44.8775,2.3601
TaSbS4,50.8537,39.1154,-11.7383
Rb2CuPtI6,20.4427,18.1921,-2.2506
FePCSe,38.2584,29.2847,-8.9737
Cd5In3,19.4522,20.4822,1.03
Ba6La,8.3433,6.7255,-1.6178
Dy6Y2Hg,29.5417,29.0442,-0.4974
MoW3,33.072,38.7401,5.6681
Li2CrAu,14.5398,14.8631,0.3234
YAl2GaHg,18.0641,14.7211,-3.3431
LiCoPbAu2,33.2641,32.2867,-0.9774
Ba4RhSeI2,16.6301,14.644,-1.9861
MnAl3Ge,32.4123,25.9153,-6.4971
Li2CoMoAu,16.3776,16.3217,-0.0559
YSi2Hg,25.7196,21.6886,-4.031
KMn2Al,54.1923,44.2904,-9.9019
BaAlGe,5.2297,6.3518,1.1221
YSiHg2,22.0409,18.7984,-3.2425
InPBr2,8.1966,9.5903,1.3937
AlCrAs2,21.729,17.0595,-4.6696
Rb2SrCo,5.5581,5.634,0.0759
Be2AlTc,31.7052,27.4401,-4.2652
Y5Hg3,31.3445,25.0768,-6.2676
Li2CrAuI,16.7967,15.9978,-0.7988
Ce3Bi5,42.9453,44.1459,1.2006
FeSb,24.5877,26.3599,1.7722
SrTlCr,14.7622,14.9588,0.1966
CaPm(SmBi2)2,36.4408,38.6017,2.1609
Pr2NbIr,44.4706,39.3372,-5.1335
Sr2CrGaTe,18.6179,16.9425,-1.6754
Ce3Pa5,51.451,55.1578,3.7067
ZnRu2Pt,32.5238,28.8061,-3.7177
Ta2BeTl,34.8151,36.1783,1.3632
Mg(CuH4)3,4.0076,2.7856,-1.222
YTmNiHg,48.8038,45.4421,-3.3617
TaBeTl2,38.542,38.8683,0.3264
YGaHg,15.4711,15.1852,-0.2858
K3Bi5Br12,13.3597,13.81,0.4503
TaBeTl2,38.4548,38.8683,0.4135
Ba2PaCuSe6,35.3452,29.7383,-5.6069
Li5Pb4Au,25.6879,26.8783,1.1904
LiEuAu,24.9062,26.3006,1.3944
Na4CdI2,22.9556,20.4974,-2.4581
CuPd2PtSe6,37.5505,29.9298,-7.6207
Be3ZnGe,8.9129,6.4615,-2.4514
Be2ZnP,9.7912,6.213,-3.5781
K(Tl3I4)2,32.7343,33.0201,0.2858
BeV3Ga,79.3442,61.8523,-17.4919
Cd11Pt4Au9,41.2738,37.5487,-3.7251
Ir3PdPb,42.5735,43.8317,1.2582
CeNiPt4,59.5168,44.3338,-15.183
Li2CeHgAu2,21.0623,21.7922,0.7299
SrAl2Br,6.3738,7.3375,0.9637
SnRh3Br,37.0609,28.1945,-8.8664
RbZn2Bi,18.0491,18.675,0.6258
PuTh7S8,59.9706,53.805,-6.1655
K3Nd5I12,10.7906,11.992,1.2013
Ca3Tb(DyRh3)2,31.9374,26.1846,-5.7528
Cr4AsAu,16.6358,16.0789,-0.5568
RbErTl2,33.2227,34.2884,1.0656
Li5SbAu4,23.1392,23.4083,0.2691
CaTmGa2Pd5,17.2111,17.6037,0.3926
Tl(GeAu3)2,36.1128,38.4754,2.3626
Ca2Cd3PtAu12,40.1485,39.6448,-0.5037
Ca2Be3CdAu12,36.7434,35.8823,-0.861
Li2OsAu,22.7217,24.579,1.8572
Pr3Sm6Tm,12.2044,14.9056,2.7012
Ca3PbSe4,62.3097,52.5951,-9.7146
ZrTl2I,56.254,52.5173,-3.7367
Li2TaAu,21.4937,23.5247,2.031
Be(AlTc)2,41.6512,34.1653,-7.4859
Li3AuI,14.1256,14.6194,0.4938
BeAlTc,47.1491,38.5618,-8.5873
HfGeRh2,53.9256,38.5668,-15.3588
Ba2ZrSn,30.0081,27.1887,-2.8195
YInHg6,8.5182,7.7279,-0.7903
Li2RuAu,16.2163,17.9399,1.7236
Pr6Sb3Te,8.6284,8.7358,0.1074
LiMn2Au,56.703,48.4936,-8.2094
LiTiHgAu,21.4262,16.3653,-5.0609
Be3AgRh,18.5747,13.8104,-4.7643
LiNbPAu2,52.8094,46.4387,-6.3707
Ce11Hg9Pt4,25.6205,22.1108,-3.5098
YRe2Hg,27.0702,29.2321,2.1619
RbAs2Ru,34.6875,30.1959,-4.4916
As3RuW,27.4629,22.916,-4.5469
Ga2Ni3Au2,20.7131,20.2665,-0.4467
Li6SbAu,11.4286,10.8033,-0.6253
NaCeAu2,35.57,36.2558,0.6858
Ta2Cu,19.1552,28.0882,8.933
Nd3Fe2Co7,21.4561,18.5873,-2.8688
ThSnO4,36.2503,33.9072,-2.3431
AsRu2W,40.6973,32.8622,-7.8351
YZr4Hg,74.1487,62.1695,-11.9792
ThSnO,51.9658,46.8614,-5.1044
SnSb2Ir,33.4782,33.4969,0.0187
Rb3Tm2SnSe6,30.0443,25.7633,-4.281
PrAl5Os2,12.4186,14.0273,1.6088
BeAlTc2,58.4941,47.5893,-10.9048
MnSbW2,47.371,45.8772,-1.4938
Be2AgPb,22.9884,21.3076,-1.6808
Li2OsPb,24.168,26.0655,1.8975
ZrSbBr2,48.7891,42.77,-6.0191
LiScPbAu,26.1799,28.0937,1.9138
ZrSb2Br,57.436,50.2694,-7.1666
Np2Sn2HPt2,51.4576,46.1118,-5.3458
BeAlTc2,58.468,47.5893,-10.8788
Li2TiAu,15.5702,11.8781,-3.6921
Li5PbAu4,23.9415,25.0181,1.0766
Rb2Sn2Ru,27.2675,24.8659,-2.4016
LiLa3Ru,35.1577,26.8313,-8.3264
Be2AgPb,22.7529,21.3076,-1.4454
SrB3F,8.5707,8.3235,-0.2472
Hf2Ni3Pt2,68.7691,50.5916,-18.1774
CaDy2Rh3,14.9613,13.3034,-1.6579
YZr2Hg,61.7232,52.3227,-9.4005
CaSm(ZrAs2)2,25.5436,24.2713,-1.2723
GdAsRh,0.0,1.2534,1.2534
Li2AcCdIn4,21.446,21.6664,0.2204
Ca3Cd2InAu3,23.284,24.569,1.285
Be2AgPb,22.7395,21.3076,-1.4319
Cd(SbRu)2,22.8292,23.2035,0.3743
RbZn4Cd,8.7809,9.1598,0.3789
Li2ZrNbAu,58.1178,49.573,-8.5449
Li(NbAu)2,70.0353,61.4222,-8.6131
Pr3Se5S12,31.6319,20.1205,-11.5113
Y4Hg2N,38.7732,32.7549,-6.0183
TaBiTePb2,48.9348,48.9431,0.0083
La2Pr2Ni3,24.3538,17.9722,-6.3816
NiAgTe2,26.6724,25.5696,-1.1028
Y(ThSc)4,33.2018,36.323,3.1212
LiIr2Au,33.706,36.8832,3.1771
YbBiO3,0.0,3.1973,3.1973
LiMn2Au,61.8367,48.4936,-13.3431
NbB4W3,32.2546,31.7642,-0.4904
LiCeEuAu,24.9887,26.9773,1.9886
LiLuRhAu,31.9627,30.4614,-1.5013
YSi2Hg,26.0256,21.6886,-4.337
LiRhAu2Br,39.3914,35.5409,-3.8506
Li3MoAu,13.4869,14.2429,0.756
Sr2TiC,25.5352,21.1062,-4.4289
LiRuAu2,27.926,29.6424,1.7164
Sc2Bi4W,38.6968,40.1886,1.4919
Cr2RhN,33.8714,27.7065,-6.1649
Re2Ni3Rh2,50.1534,35.0028,-15.1506
K2CuTc,31.7442,27.0207,-4.7236
LiEuAu2,30.2505,31.5402,1.2897
Li2ZrFeAu,43.404,37.8562,-5.5479
Ac2NdLu,46.9256,49.4778,2.5522
FeNi3I,27.387,22.2532,-5.1338
InCu2Tc,31.8234,29.0192,-2.8043
CaTlCrSe2,49.8407,39.4844,-10.3563
Sr3BPd,12.354,13.2617,0.9078
BeBiPb3,43.6705,44.0316,0.3611
InCuTc2,53.1516,46.4714,-6.6801
AcNdLu2,39.1317,40.9981,1.8664
Zn2FeTc,31.1277,24.8633,-6.2644
LiCu2Au,11.9778,14.6094,2.6315
Cs2SnSb2,28.6063,26.7244,-1.882
YCuHg,23.78,18.4074,-5.3725
Li2TeAu2,23.9445,24.8297,0.8852
CsSnSb,26.2815,25.662,-0.6195
Fe3Cu2Pd7,24.093,22.1151,-1.9779
Li2AlIr,14.6069,15.0995,0.4926
CaTbGdHo,22.4623,25.0984,2.6361
BeRh3Pb,41.689,32.9392,-8.7498
HfCoBi2,59.3571,52.3274,-7.0297
Nb2CuBi,80.1922,73.1161,-7.0761
HoPa2Nb,76.4143,72.2976,-4.1168
Zn2FeTc,31.1404,24.8633,-6.277
Te2PbAu,46.1409,45.5572,-0.5837
CaPrGa2,5.8888,7.0364,1.1475
Na4CdSb,24.9416,21.896,-3.0456
AsAuC,35.3933,30.5005,-4.8928
Sm3Fe7Co2,15.3512,14.7058,-0.6455
Re5Os3,40.5516,46.098,5.5464
NaCdSb2,33.301,28.9035,-4.3975
Ba2PbC,24.9981,22.6515,-2.3466
Th11Co4Hg9,30.8911,32.3576,1.4664
NaCd3Sb2,26.3961,24.2952,-2.1009
Y2NbHgSb,58.4806,46.7695,-11.7111
AgSb,34.8446,30.3072,-4.5374
Te2RuN,45.2017,41.8702,-3.3315
RbSnSeBr2,17.9248,15.8393,-2.0855
LiPC,17.679,13.1373,-4.5417
La2VRu2,45.4081,35.97,-9.4381
Rb2CuW2,18.6329,17.2694,-1.3635
Zn2FeTe,18.5155,15.2606,-3.2548
GaAs2CBr,21.0095,16.9907,-4.0188
SrY2Hg9,9.0238,7.6755,-1.3482
GaFeC2Br,34.8052,23.7446,-11.0606
K3La,22.2219,17.7252,-4.4967
GaPdBr2,15.0078,14.6431,-0.3647
Pm2NpScAs4,25.7771,25.1896,-0.5875