Formula,E_hull_DFT (eV/atom),E_hull_ML (eV/atom),Delta (ML - DFT)
CdRe,76.0926,64.7589,-11.3337
UAl2Tc,44.4778,40.7776,-3.7002
NbCrNO2,37.4318,30.1782,-7.2536
Mn4FeAg,73.8999,59.5936,-14.3063
LuSb2,35.7225,34.3079,-1.4145
RbSc2SnI,17.9716,14.9864,-2.9852
U2AlTc,59.7706,57.6325,-2.138
AcSmThSn,43.9737,47.0464,3.0727
Na2Mn4Cd,69.2386,59.8,-9.4387
Sn2Mo2Pb,44.3036,33.1813,-11.1223
CaSm2Sb,26.0098,24.5297,-1.4801
SrLaV2,76.7243,59.8272,-16.8971
Li2PtW,32.2933,28.0964,-4.197
Cd(CuPt3)2,57.9821,43.128,-14.8541
K2Ni2P,11.7476,9.663,-2.0845
Ba2CrI6,13.1648,14.0429,0.8781
Tb2Y5Ho2,19.8907,23.1829,3.2922
Ba2AgPPd,15.2157,12.8663,-2.3494
Mg(ZrH3)2,22.977,20.1532,-2.8238
SbTe2PbN,37.5391,35.0467,-2.4925
YZr2Pt,74.6464,61.7648,-12.8816
Hf2GeSb,84.8748,63.3195,-21.5554
Ac2PrPt,47.5551,43.4066,-4.1485
Ga2AgRu2,12.2675,13.2658,0.9983
HfGe2Sb,52.0235,40.9106,-11.1129
CsGaAu,26.457,27.3608,0.9039
NaAuBr4,16.5653,16.8502,0.2849
Mn2CrI6,38.0363,33.3094,-4.7269
K(SiPd)3,11.0366,8.9055,-2.1311
NbPdSe2,63.739,52.605,-11.1341
Zr4AgOs,77.5476,67.7446,-9.803
ScSnSb2N,31.7209,25.581,-6.14
Li2BeIn,7.4002,6.682,-0.7182
SmYAgSe3,29.0195,25.0376,-3.982
MoW3(SeS3)2,46.5541,39.3888,-7.1652
LaSc2PdN,22.6027,19.3141,-3.2886
Ni2SbIr,30.011,28.155,-1.856
Sc(TiCd)2,11.6117,13.1481,1.5365
Ba2PPd2,8.1453,8.0042,-0.1411
Nd3FeSb,31.4814,28.5612,-2.9203
Zr4PaCd,80.095,70.33,-9.7649
BeCuAs,7.0831,6.8859,-0.1972
TlVSn3,48.4925,43.16,-5.3324
HfNbN2O,56.8729,42.199,-14.6739
AlCdSe2,29.359,24.9565,-4.4025
GaSbOs2,28.1306,30.7509,2.6203
Y3GaSi2Ni9,37.9903,33.4694,-4.5209
La2AgSb,44.7301,35.3174,-9.4128
LuSi2Ru,15.3983,13.4802,-1.918
Sc2TcGeN,61.6958,48.8883,-12.8076
SrSc2CuN,19.5093,16.6612,-2.848
Sm(DyPb)4,33.6477,36.0281,2.3805
SmYAgBi,30.7485,31.5922,0.8436
Tb2Mn4AlFeB2,39.2164,33.4726,-5.7438
Tb13Y3O24,12.4425,13.2747,0.8322
Al2CdPb2,23.2546,24.7851,1.5305
BPbC2,57.3092,45.8545,-11.4547
Zr4CdPb,77.3932,67.652,-9.7412
LaTa2Se,43.9611,40.2959,-3.6651
Cr2Mo2Ru,16.0484,16.0659,0.0176
Mn3Sb,78.1383,64.1061,-14.0321
BeNiSe2,25.6241,22.7841,-2.84
LaNdErIn,31.2163,30.063,-1.1533
Lu2SiRh,32.2163,29.2686,-2.9477
Be3NiSe,11.4209,10.5993,-0.8216
La2TaSe,40.9575,34.5867,-6.3708
K4Mo2H6S2O9,8.3381,5.3091,-3.029
Lu2SiRh,32.2532,29.2686,-2.9846
IrPtBr2,41.6423,36.0574,-5.5849
Sr2Zn2Ag,12.6261,12.5598,-0.0663
InSi2Pb,26.0797,23.3224,-2.7573
LuSi2Ru,15.5033,13.4802,-2.0231
Ta2InF2,38.4249,35.7096,-2.7153
Cr2NiPt6,66.8513,49.9195,-16.9318
PmSmNiGe,20.3222,20.0718,-0.2503
TaCuSe2,36.1945,31.002,-5.1925
Sr2YAgSe4,32.9324,26.4445,-6.4879
AcPr(H3Pt)2,18.72,14.1652,-4.5548
Ga4Pd9Au2,21.6055,21.6429,0.0374
Cu2AsBr6,12.8271,12.3731,-0.454
BeGeTe2,19.684,20.5651,0.8811
VCdSi3,40.1013,29.7955,-10.3059
LiIrW3,33.0845,36.9427,3.8582
Mn2AgGe2,43.7841,36.2496,-7.5346
NdTh2Sc,40.528,44.1337,3.6057
Zr4InPb,77.4061,68.3016,-9.1045
Zr4IrPt,78.1002,65.2098,-12.8904
ScCrAu,31.4297,29.193,-2.2367
K(GeP)2,7.5147,8.127,0.6123
Sm2Cu2Ni5Ge,7.0192,8.4291,1.4099
NbSeN2O,39.41,31.6357,-7.7743
Te(SBr)2,32.5071,27.1803,-5.3267
LiAcZrRh,53.0189,46.9625,-6.0564
Mo2IrRu,22.1449,27.6761,5.5311
Ge2BiTe,25.3029,26.5945,1.2916
SrGe2,10.5582,13.195,2.6368
LaZrCo2,40.4488,35.2992,-5.1496
Zr(SBr)2,40.638,31.3209,-9.3172
TcNi3C,36.9833,29.5526,-7.4308
MoRhAu2,40.0676,38.3261,-1.7415
Na2Sr(InSn)2,20.2549,20.0931,-0.1617
HfMo2P,43.5955,34.6623,-8.9333
Nd2Y5Ni2,57.1158,51.5888,-5.527
MoIrRu2,28.8846,27.7105,-1.1741
In2S2Br,32.4696,26.4136,-6.056
NdYNi3,34.2381,33.1219,-1.1162
MoIrRu2,28.5556,27.7105,-0.8451
Mo2IrRu,29.6268,27.6761,-1.9507
Nd3Y3Ni4,57.6735,51.7558,-5.9177
Sb2S2Br,45.1009,36.3973,-8.7036
Ni2Pt,16.1411,15.4046,-0.7366
Li2As2Ru,5.9842,4.2436,-1.7405
Rb(BaCa)2,0.9674,2.6019,1.6345
CsAc(PPt2)2,56.0465,44.0174,-12.0291
Pr6Cu2Sn,6.4433,5.5552,-0.8881
BaNaLi2Cu,9.7556,8.3671,-1.3885
Sr6CdCu2,11.414,11.5667,0.1528
NaHfSc,43.474,31.5923,-11.8817
Tb6Cu2Pb,20.2004,22.4615,2.2611
Sr6InCu2,10.0856,11.6249,1.5392
La6Cu2Tc,40.8175,30.0111,-10.8064
Cu2TcI6,23.8237,23.1194,-0.7043
Tl6Au,50.9046,51.4097,0.505
Tb6Cu2Os,18.2924,21.2599,2.9675
Tm6Cu2Tc,26.9123,27.6193,0.707
Ca2YW,26.2588,20.4015,-5.8572
Cu2Te6Au,31.5033,30.8117,-0.6916
Nd6Cu2Sn,25.2792,25.2779,-0.0013
NaHfSc,59.2365,31.5923,-27.6442
Ge2Bi2Te,34.1883,34.5225,0.3342
Li2Y(AlAg)2,21.98,17.1842,-4.7958
AlPbSeN2,21.6563,20.748,-0.9083
Ca2YW,26.2407,20.4015,-5.8391
Nd3Y6TmTh2,26.6675,28.1754,1.5079
Cu3PC,21.1925,15.8221,-5.3704
Ac2ThCu6,26.0083,27.8619,1.8536
MnNiP2Pb,53.7961,48.6354,-5.1607
ReAu3I,42.9014,43.3271,0.4256
Sb2TeAu2,41.9691,39.7351,-2.234
SbAsOs2,35.1593,36.0393,0.88
SmNpAs,26.1259,30.1871,4.0612
AcPm(H3Pt)2,21.6807,17.1269,-4.5537
Pa4SiIrSe2,52.1175,50.9544,-1.163
GaNiOs,5.8599,13.6807,7.8208
Y2ZnSi3Ir4,38.152,34.5937,-3.5583
Li2PtW,32.3714,28.0964,-4.275
VFeSiIr,47.3995,40.2095,-7.19
SnSbOsN2,47.4647,39.0846,-8.3801
CaYW2,34.4632,25.6074,-8.8558
Ce2TmCu6,13.2634,15.0085,1.7451
CsYCo2Ag,33.623,28.3816,-5.2414
Li2PtW,32.3621,28.0964,-4.2658
La2TbCu6,18.7128,16.8306,-1.8821
Nb2OsN,101.8678,84.0196,-17.8482
CaY3W,30.8453,21.557,-9.2884
CoSb,0.0,1.8916,1.8916
NaLuSn,26.1679,26.6361,0.4682
GaNiOs,11.9541,13.6807,1.7266
SmDy5Pb4,36.9825,38.6474,1.6649
TlPt2Br,61.1973,48.4431,-12.7542
Rb3TaSe,18.8688,16.3023,-2.5665
AcGdGePd,29.5332,32.3937,2.8605
SmDyPb2,38.9926,41.677,2.6844
AlRh2N,19.007,14.9275,-4.0794
CaTm2VO6,26.083,23.6791,-2.4039
GeBiTe2,37.1506,37.4175,0.2669
CaEr2VO6,25.843,23.4583,-2.3847
Sr2TlCuN,21.4764,19.4991,-1.9772
CaDy2VO6,25.4684,23.0873,-2.3811
Ag2TeOs,37.3477,35.6787,-1.669
InGeSbN2,16.4889,15.7248,-0.764
ReIrRh,44.5554,43.3088,-1.2466
Ag2TeOs,37.08,35.6787,-1.4013
Y2ScI,8.8681,12.9764,4.1083
SrLi3V,29.3347,23.51,-5.8247
CaYW,33.1897,24.9112,-8.2785
Hf2AuI2,76.4077,59.0057,-17.402
Li2TlW,23.146,24.9123,1.7663
La(CeCu3)2,15.6223,15.6557,0.0335
Y2Si3TcIr4,52.9934,47.2268,-5.7665
RbSc3Si,21.6308,18.5956,-3.0352
RbSc2Si,20.0389,17.3606,-2.6783
Sn3RuAu,26.2191,27.1427,0.9236
Cu2SiRu2,11.4095,10.3033,-1.1062
CaYW2,34.7105,25.6074,-9.1031
NaSrV,55.1649,42.7721,-12.3928
NaSrV,56.6455,42.7721,-13.8734
Sc3Te,9.5496,10.9772,1.4275
SbRuPb2,41.8797,41.8329,-0.0468
NbINO2,48.6432,39.1264,-9.5168
LaPrNdLu,26.3851,25.3502,-1.0349
RbZnIn4,12.5622,13.6233,1.0612
TcAsW2,46.0516,44.3755,-1.6761
HfTiP2,37.8333,29.8137,-8.0195
Ac2CdSn3Pt4,56.0062,46.6927,-9.3135
Nd(TmCu3)2,13.8106,15.8056,1.9951
ScWN2F,12.0717,13.267,1.1954
Ho2GaPb,28.9173,31.7121,2.7948
K2LaMo,23.9549,20.3434,-3.6116
Y2Ho2Rh3,32.2919,28.8437,-3.4482
TaSiRu2,18.8199,24.5168,5.6969
HfTlCu,51.082,41.8014,-9.2806
Li2IrSe,22.9219,21.573,-1.3489
Hf3TiP,89.0132,63.2803,-25.7329
Er4IrPd2,27.2717,30.9387,3.667
La2NdLu,40.4911,35.5147,-4.9764
SrMg(H4Pd)2,7.7187,8.3319,0.6132
ZrCo2Sb,40.0889,35.4566,-4.6323
PPbSe2N,43.7172,35.8956,-7.8216
CaCu2Os,13.0674,14.472,1.4046
ScFeSe2N,36.9391,31.0399,-5.8992
Cu2PSe,20.9564,17.6448,-3.3116
AlPbS2N,35.0712,28.9899,-6.0813
CaCuOs2,26.3929,27.1781,0.7852
YAuBr2,15.7604,19.1222,3.3618
Hf(BiAu)2,64.6268,57.5918,-7.0351
AlZnPb2,29.1682,30.4243,1.2561
Nb3PtI,108.5582,85.0078,-23.5505
AlZnPb2,29.1728,30.4243,1.2516
AcGa2NiPt4,55.0219,43.8518,-11.17
AlZn2Pb,17.8639,19.2422,1.3783
Al2ZnPb2,20.8891,22.3838,1.4946
Hf2BiAu,97.2395,76.7589,-20.4806
Ac(SmCu3)2,17.0218,18.8773,1.8555
AcAsAuF,25.7249,28.4572,2.7324
Ac3Cd2(SiPt2)2,55.5006,46.1136,-9.387
TlMoOs2,34.0752,36.9827,2.9075
NaTcPt3,78.8258,58.7098,-20.1161
TcMoPt2,71.5924,57.0386,-14.5538
LaNbSeN2,49.5452,38.8738,-10.6715
ReMo2P,29.7264,28.4719,-1.2544
Ac2Nb(SiN3)2,26.7735,24.8326,-1.9409
CrMoRu2,15.7416,17.4313,1.6898
Ac2Cu2PtO6,20.0217,19.1684,-0.8533
Tb6Pm2Th3,37.187,39.5691,2.3821
Y2AgPd,22.2807,24.6746,2.3939
TcSeI2,47.7784,40.952,-6.8264
Tm(PaCu3)2,22.7582,24.9219,2.1636
Tm(ThCu3)2,22.3732,24.628,2.2548
Zr4PdPt,74.6168,61.3602,-13.2566
SiTeI2N,22.378,20.0252,-2.3528
CrCu3Ru,13.1736,11.2356,-1.938
NaZrSc,37.8703,33.5873,-4.2829
Nd(SCl)2,22.9861,17.1798,-5.8063
Ac3In(SnPd4)2,29.3901,28.9538,-0.4363
Y2ZnMoN,41.837,32.6598,-9.1772
La2GdZr,57.8547,48.3201,-9.5346
Ba2C,20.8883,14.981,-5.9074
LaGd2Zr,52.2765,45.6373,-6.6392
Y2TmCu6,22.2115,19.2559,-2.9556
NiF,0.3741,0.1773,-0.1968
BaYAgPb,48.8297,43.7306,-5.0991
ZrCo2Te,38.0949,35.0235,-3.0714
GdMoP,6.2137,6.0081,-0.2056
SrZnGa4,8.9906,9.967,0.9763
Y3Al3Si2Ag,36.5016,28.5843,-7.9172
P2WSe,81.0985,67.661,-13.4374
CuMoPb,41.1297,33.083,-8.0467
SrLa2Au,36.8986,33.7538,-3.1448
AcAl3Pd,17.5881,19.7643,2.1763
PWSe2,92.2661,78.046,-14.22
P3WSe,67.0916,55.6227,-11.4689
Pr5(YHo)2,8.4138,10.3363,1.9225
Tb2TmNpAs4,22.9618,25.3836,2.4217
MoRh2Au,40.3224,35.5358,-4.7866
TaAsI2,24.0381,25.0827,1.0447
K2VBr,41.3673,32.6053,-8.762
ZrCo2W,38.7294,36.6923,-2.037
TaTlPt3,72.183,56.3146,-15.8684
YZr2Pt,66.993,61.7648,-5.2282
Hf(ZrCu3)2,42.3238,34.5812,-7.7426
Th(ZrCu3)2,33.558,31.7767,-1.7813
TaTl2Pt,57.5286,53.7959,-3.7327
Sm12Y6Er,21.8603,22.8155,0.9552
YMgNi,56.7582,50.7583,-6.0
Tm2ZrCu6,22.0305,22.1643,0.1339
AlIr2Se,34.7015,34.497,-0.2045
YAl6Si18(N15O)2,11.0624,9.0952,-1.9672
Ca2ZrTe,37.492,33.4633,-4.0287
NaSr2La,26.0563,22.4289,-3.6274
Zn5InP,8.9166,9.7124,0.7958
LiThCuAg,26.1454,26.5153,0.3699
CaY(ThBi2)2,47.9283,48.2555,0.3272
AcYTiN3,22.8698,22.9373,0.0676
Ni3Ir,9.2377,14.1376,4.8999
NaBi2As,35.9444,35.84,-0.1044
In2CuAg6,26.1789,22.1536,-4.0252
TbMnNi,64.4657,60.4224,-4.0433
Cu(PbBr3)2,27.4967,25.8019,-1.6949
Tb2TmPa,37.9354,41.4287,3.4933
GaPdO2,31.551,28.6389,-2.9121
ReMo2P,38.5358,28.4719,-10.0638
AcSi2Pt,39.2688,31.7301,-7.5387
Ba2LiBe,4.7594,3.9646,-0.7947
Sc2CdW,17.4454,20.5852,3.1397
NbVNO,49.543,38.9014,-10.6416
CdPI2N,27.0697,23.1577,-3.912
ScCdW2,25.8103,29.5917,3.7814
Li4Pu2Cl9,9.516,11.9301,2.4141
Cu(MoRh3)2,42.1218,30.5928,-11.5289
Zr4RePd,74.857,66.746,-8.111
SmTh2MnN5,18.7182,19.5704,0.8522
NaTePt,51.6965,41.4669,-10.2296
Ac2PaInPt6,74.9277,60.3974,-14.5304
YVCr2Pd,52.8487,41.7553,-11.0934
Na2BiPb2,38.8505,38.5938,-0.2567
TaSnI2,21.89,24.2954,2.4053
Pm4Er3ThS8,42.2668,35.0866,-7.1802
Er(ZnNi2)4,8.215,10.116,1.901
Sm6Tl2Cu,28.5089,30.4824,1.9735
CdRe2Au,66.5084,58.1514,-8.357
ReSiOs3,37.4524,38.9092,1.4568
Bi3PPb,45.3032,45.6358,0.3327
TaIr2Pt,52.7775,49.8483,-2.9292
PdSeBr3,11.3362,12.4481,1.1119
Ta2Ge2Sb,20.3867,23.2714,2.8847
SnPPd2,12.4068,12.6869,0.2801
SiOsIN2,35.7106,29.0661,-6.6446
Sm2Ni4Ge3P,17.1677,15.2956,-1.8721
IrPtW2,52.449,50.1781,-2.271
Th(CuI3)2,19.9601,21.7366,1.7765
TaTlW,43.7287,47.1736,3.4449
TaSn2I,26.2155,27.7515,1.536
Ta2GeSb2,27.4792,28.1936,0.7144
Sm2ErAl6,10.61,12.5874,1.9775
Zr3Al3Sn2Os,42.5694,39.2872,-3.2823
GaPdN2,11.3703,11.887,0.5166
Tl2TeAs,38.6436,39.0121,0.3686
Ta2TlW,41.6012,46.1035,4.5024
CuRePt,22.8549,23.2457,0.3908
Cu2SbSe4,35.7871,29.6983,-6.0888
Sm2NiGeO6,7.4382,7.2239,-0.2143
TaTlW,43.2615,47.1736,3.9121
KWC2,36.8696,29.6854,-7.1841
TlTeAs,34.5645,35.5314,0.967
CuSb2Se,36.3153,30.0218,-6.2936
ReSbTe2,42.6854,42.1548,-0.5307
IrOsCl,31.6632,34.0097,2.3465
NaCoC,28.0103,23.2254,-4.7848
Cu3SbSe,23.1362,20.2378,-2.8984
NbPtAu,85.7074,71.0391,-14.6683
BaCa2PbN,12.0956,13.4653,1.3697
Y3Al3Rh2,40.6916,29.9699,-10.7217
CuRe2Pt,38.7302,37.1892,-1.541
TaSiTe2,34.5149,32.2703,-2.2446
YAlRh,21.0828,16.0547,-5.0281
TaSiTe2,34.2367,32.2703,-1.9664
Ga3PdN,17.7201,15.9175,-1.8026
Tl3SnTe4,39.3452,38.5473,-0.7978
CuRePt,46.0545,23.2457,-22.8088
TaInN2,15.3898,18.1095,2.7197
TaInN2,13.9737,18.1095,4.1358
YAlRh2,43.057,32.4147,-10.6422
Ba2CrPb,19.7748,19.7528,-0.022
Y2HoTmH8,6.5738,7.7705,1.1967
Al2RePt,33.4622,31.675,-1.7872
CdAg2Sb,31.7618,27.4099,-4.3518
CrTeAs,22.4336,20.7618,-1.6719
CoReP2S,45.0493,34.5543,-10.495
Th4ZnRu,40.794,43.0336,2.2396
CdP2Se,15.5928,17.015,1.4222
CdAgSb,31.8912,28.5769,-3.3143
CrTeAs2,15.0594,14.0445,-1.0148
ZnAuI2N,28.7253,27.4795,-1.2458
LiAlPb,13.9214,22.1306,8.2093
PrHfSb3,35.6294,27.39,-8.2394
CrTeAs2,20.0234,14.0445,-5.9789
SrAl2In,10.0475,11.5064,1.4589
Gd2GePt3,55.0341,43.8253,-11.2088
HfSb3Rh,65.9803,49.7509,-16.2294
Fe2Co3Ni(BOs)2,20.2483,18.1208,-2.1275
Cs2S2Cl,32.1458,25.9637,-6.1821
Na2V2RhSe6,57.9233,44.2966,-13.6267
NaMgV,52.7285,41.2881,-11.4405
AcTbCoPt,46.2466,42.6607,-3.586
YThSb2N,48.0138,44.2398,-3.774
Ag2Br,22.3702,18.9419,-3.4284
YBeCrRh2,40.3059,30.647,-9.6589
La2Pr(NdEr)2,29.536,26.6059,-2.9301
ScGeBr3,19.5572,15.1166,-4.4406
AcZn4Pt,30.5126,27.5622,-2.9504
Ac3YTe4,45.5701,45.4606,-0.1094
GdGePt,41.6064,35.471,-6.1354
Gd2GePt,38.4266,34.6384,-3.7882
YAl2Rh,31.6831,24.7117,-6.9715
InRePb2,42.2146,43.9541,1.7395
Ag2TeP,24.2408,21.7165,-2.5243
Zr6Co2Ag,62.4821,53.3145,-9.1676
In2RePb,33.4998,36.2719,2.7721
Sm6Co2Ge,13.6958,16.3373,2.6415
Zr6Co2Os,62.4793,54.875,-7.6043
Zr6InCo2,61.1237,52.3541,-8.7696
TlReRh,48.1237,45.043,-3.0807
CdIr2I,33.227,35.1205,1.8935
NiTeAs2Br,24.904,19.8915,-5.0124
Er6Co2Cu,23.1962,23.6875,0.4913
Nd6Co2Cu,20.1643,20.3125,0.1482
Zr4RhAu,73.2139,61.2808,-11.9331
NiTeAsBr2,24.1681,20.4925,-3.6756
Sr3AlGe3,12.1684,11.8704,-0.298
Be3CuIr,18.2364,16.2459,-1.9905
PrSb2Ir,32.0728,30.8796,-1.1932
BeCuIr,22.8847,22.6866,-0.1981
ZnOs3Pb,40.176,41.4729,1.2969
PrSbIr2,31.6402,33.1034,1.4632
Y6P2RhS3,36.6946,30.8402,-5.8544
Ac2Sb4Pt3Rh,61.7343,50.1407,-11.5935
MgScRh2C,32.9677,24.0082,-8.9595
Pr(Sb2Ir3)2,39.4089,38.4469,-0.9621
OsPbCl,33.7207,35.1943,1.4737
NaLaMn2,65.5133,55.9814,-9.532
Li2Al2In,7.2875,6.6907,-0.5968
DyUAs,28.4824,32.0967,3.6143
Np2AgIr,53.9135,54.2842,0.3707
DyThCu4,19.9776,22.1546,2.177
OsRuPb3,44.397,45.7539,1.3568
PrSmAs2,8.7327,12.3406,3.6079
CeYHo2Er,20.3108,22.6503,2.3395
Os2RuPb,39.1106,42.3826,3.272
SbAs2Ir,27.2516,27.5323,0.2808
TcIr5,51.6011,53.0659,1.4648
TlZnPt2,55.5252,47.6041,-7.9211
Ce2Y6Ho3Er,20.6505,22.0285,1.378
Nd6Co2Pb,19.079,20.898,1.819
Nd6Co2Ir,16.5086,19.7783,3.2697
Pm(Nd3Co)2,15.3066,17.7825,2.476
La(Dy3Co)2,20.0897,21.0646,0.9749
Ac2Ga12Pt,20.8443,20.1849,-0.6593
ThCd2In,30.8695,32.7074,1.8379
V3NiP,83.7436,64.3502,-19.3934
ThCdCu,30.6076,33.0984,2.4908
Zr4PdRh,67.8702,56.2333,-11.6369
Nd6SmCo2,15.3358,17.8879,2.5521
Nd(Dy3Co)2,17.0801,20.0058,2.9258
Ca2Ni,6.2692,5.6347,-0.6345
AcGa3PdPt,32.7754,28.4801,-4.2953
FeRuCl3,20.5973,13.9783,-6.6189
Nd2Y3Ho2,21.0849,23.3325,2.2476
CoAu3,38.2784,37.3831,-0.8953
Th4ZnTc,53.5804,52.56,-1.0204
Li2ZnIr,16.9319,14.7398,-2.1921
Ac2(PAu2)3,37.992,39.0965,1.1046
Nb2Te6I,47.0524,41.8917,-5.1607
CaPrPd,6.6292,8.0583,1.4291
Li2LaZn,15.2076,12.6258,-2.5818
Ca3Th3WN8,21.7422,19.7076,-2.0346
Ho6Co2Pd,17.2691,19.6233,2.3542
OsRh2,20.8798,19.4433,-1.4365
Sm3Y3Ho2,16.3404,18.4911,2.1507
Zr4TcAu,88.5574,76.9225,-11.6349
Y2TiSiN,44.6211,36.8841,-7.7371
BeTlCr2,17.5547,18.0126,0.4579
Co3W,15.2331,18.1974,2.9643
CdReOs,72.8106,62.1371,-10.6735
BeTl2Cr,28.3682,28.7665,0.3983
ScGeSe2N,32.2161,24.3065,-7.9096
Al4Pd9Au2,17.2204,18.9504,1.73
SrFeOs,27.539,28.8796,1.3406
Pr6TlCo2,-0.0,0.6886,0.6886
Sr2NdBr,17.1927,17.5376,0.3449
CdReOs2,65.476,58.4856,-6.9904
Pr(Er3Co)2,15.1323,17.5264,2.3941
Te2AuBr,35.8856,34.6979,-1.1877
TeAuBr2,28.0929,27.7177,-0.3753
AlPtCl2,21.9298,16.2362,-5.6936
Te2AuBr2,30.8381,30.0556,-0.7825
Te2AuBr,32.6417,34.6979,2.0561
AcY2Pt,44.88,41.0685,-3.8115
TeAu3Br,39.9672,39.6586,-0.3085
CdRePb,76.9529,64.3985,-12.5544
Er2TlIr,37.7555,40.6818,2.9264
ReTePd2,23.8982,27.7978,3.8996
Te2PtBr,43.413,36.4995,-6.9135
Nd3(YHo)2,22.6267,25.1056,2.4789
TePtBr2,40.5201,32.6003,-7.9198
Sm3(YHo)2,22.7833,25.3108,2.5276
K2ZrFe,31.6969,27.324,-4.3729
Th2Zr(SeBr2)2,40.1182,37.5334,-2.5848
Sm6Co2Os,23.5564,23.1959,-0.3605
Sm6Co2Pb,19.2887,20.7595,1.4708
CsNp(HgO3)2,14.7162,14.0091,-0.7071
Ba2ScPdN,13.3423,11.7805,-1.5618
ThGaCu,28.8728,29.7021,0.8293
Dy6Co2Tc,23.9037,24.7756,0.8719
BeTePd2,22.2036,22.0702,-0.1334
PdRu2Pt,35.3253,31.8261,-3.4991
LiPrNi2,9.4378,9.179,-0.2588
Er6Co2Tc,25.1819,26.5257,1.3439
Ho6Co2Tc,24.5013,25.8046,1.3033
NdEr3Tl4,35.3507,37.6557,2.305
Er4ZrZn,37.1635,37.1459,-0.0176
K2SiMo,14.798,13.5365,-1.2615
CrTc2Ag,56.7442,48.5723,-8.1719
CrTcAg2,41.6091,34.1672,-7.4419
ScMoPb2,40.5285,40.0623,-0.4662
Mg2GeSe4,16.921,14.3609,-2.5601
In2C,34.467,28.314,-6.153
Tb2Nd2YHo2,24.744,28.2541,3.51
ScMoPb2,40.7512,40.0623,-0.6889
Zn2MoRu,13.0856,14.7348,1.6491
Ti2RhPbN,22.9451,21.5299,-1.4152
Tl2CdRe,70.245,60.5589,-9.686
YPS2N,50.8539,41.766,-9.0879
AcYTe2,39.2618,39.8235,0.5618
Sm5(YHo)2,23.2603,26.4828,3.2225
CdAgIN2,18.4788,15.8683,-2.6105
Sc(TiCu)2,12.1964,11.7359,-0.4604
Y4Ho7,23.0704,26.1372,3.0668
TaIr2,31.152,39.1037,7.9517
CuSi2Rh,22.3663,16.1628,-6.2036
NiI,11.2421,13.5105,2.2684
Nd3Y2Ho3,23.3427,24.842,1.4993
Zr6NbCo2,73.9751,62.4051,-11.57
CuSi2Rh,22.121,16.1628,-5.9583
Zr6TlCo2,64.8779,56.3161,-8.5618
Hf(Zr3Co)2,74.2713,60.5862,-13.6851
TeOs3Ru,39.5387,40.7041,1.1653
Zr6Co2Bi,64.8978,56.4579,-8.4398
CsLaNbN3,28.8337,23.3602,-5.4735
Hf2GaSi4,51.3169,35.3925,-15.9244
Th2Be3Cu12Pt,19.9689,17.9742,-1.9947
TlSn2Ge,22.0056,24.5065,2.5009
Ni4W,0.0,1.882,1.882
TaAg3Te,36.0552,31.3224,-4.7327
Nb2Co6W,40.2676,35.1507,-5.1169
Ta2NbCo6,46.7337,35.8705,-10.8632
Cd(CuSi)2,10.6221,9.4407,-1.1814
Fe4OsW,55.8663,46.9449,-8.9214
Ac2Zn2Pt3,58.2256,48.1375,-10.0881
CdSb2Au,39.2365,36.4733,-2.7632
UAgSb2,47.2492,43.2332,-4.016
AcLaPm3Sm,31.3249,31.1473,-0.1775
SbAsRu,26.9515,24.6424,-2.3091
Zr4ReRh,80.0319,69.2564,-10.7755
TcGe2Pt,50.11,41.1886,-8.9214
Zr4SbPb,81.7842,71.3681,-10.416
Zr2Fe3Ru,38.0232,31.49,-6.5332
CaNbIN2,35.3936,29.1304,-6.2632
NbSe2IN,55.0495,43.4821,-11.5673
BaCdSb2,26.8915,24.117,-2.7745
PbSe2F,39.3863,35.018,-4.3684
Tb(PmCo3)2,12.4279,14.6203,2.1924
BeNi3,4.4946,7.8437,3.3491
Cs2MgNpO6,14.3335,13.009,-1.3245
Pm(ThCo3)2,21.3338,23.7714,2.4376
CuTeIr2,34.329,35.9674,1.6384
Ca2Th4Rh9,47.0876,39.125,-7.9626
Ba2Sr9Ca4,9.5088,8.6932,-0.8156
NaFe2W,20.1602,20.4951,0.3349
Nd6Te2P3,20.6857,22.486,1.8002
Tm4ZrZn,38.0168,37.981,-0.0358
CrGa2Ru,11.408,12.0092,0.6013
Zr4ReTc,87.4595,76.3249,-11.1346
LiMoRhPb2,35.2149,33.1029,-2.1121
ScSeBr2N,17.3831,14.7064,-2.6767
Y2Ho2Tm5,26.4212,29.747,3.3258
Sb2AsOs,35.7886,30.1881,-5.6005
SbAsOs,32.7569,32.3242,-0.4327
Bi2RhS2,49.4346,41.9792,-7.4555
Zr4TlPb,82.6402,73.3371,-9.3031
Tb4ZrZn,35.3323,35.2995,-0.0328
Hf6Cd2Co,100.6932,73.0183,-27.675
Co(AgBr3)2,14.9998,12.5937,-2.4061
Mg3In5Sn12,8.3515,10.0732,1.7217
Zr3BeMo,65.5854,54.2746,-11.3108
ZrBe2Mo,32.7463,27.3369,-5.4094
VGe2Pb,45.2821,39.6513,-5.6308
ZrBeMo2,37.6491,31.785,-5.8641
Li2TaZn,11.8215,13.6066,1.7851
Tl5Sn,43.2766,44.1382,0.8616
Ce6CoAu2,27.9249,29.0141,1.0891
GdScInIr,32.3458,28.1595,-4.1863
Sc2Mo2W,21.0135,22.8151,1.8016
LiIn2Br,19.5682,20.5672,0.999
Tl2RhS2,52.5818,44.3203,-8.2615
RbCaLa,17.457,14.9521,-2.5049
ZrAlOs2,46.0997,45.7574,-0.3423
AgMoBr2,17.8104,14.1358,-3.6746
BaCd2Cl,7.8606,10.6635,2.8029
HgIr3,26.9615,31.582,4.6205
Sc3In3Ge2Ir,29.3257,22.8229,-6.5028
CdSnPb2N,37.9174,35.4485,-2.4688
ScPbSN2,31.8483,30.1132,-1.7351
CePaZn4,20.2794,22.1448,1.8654
GaBiI2N,23.6786,23.4568,-0.2218
Sr(Ni2B)6,5.3697,6.2649,0.8951
Ge2Sb2Pt,35.0386,27.9314,-7.1071
TbFe4Ag,9.9401,11.1133,1.1733
Ac3Y3PuTe8,41.5507,41.1637,-0.387
Pr3Y2Ho3,13.4407,14.5915,1.1508
Sm4Y3Ho4,23.1929,26.2293,3.0363
Sr(Ag2Sn)6,27.0869,22.7943,-4.2926
LiMnP,41.4698,35.303,-6.1668
PrGeSb3,16.2635,13.5799,-2.6837
NpRu,31.8317,39.6997,7.868
Na2TlTeSe,37.5444,33.1825,-4.3619
Fe2Si2Os,14.2691,10.6534,-3.6157
Yb3Al2(CuP2)2,26.8174,22.8719,-3.9455
Si3Os,21.9923,18.2861,-3.7062
Ba2NaZnN2,13.9945,11.6576,-2.3369
Th2Ga4Cu3Tc,29.4525,27.2563,-2.1962
GdNb2,93.1707,76.9382,-16.2325
NbAgPb2,70.0944,62.2273,-7.8671
AsIr2Au,36.5121,39.5933,3.0812
CdSb2Pt,49.7934,40.6597,-9.1337
Zr3TlOs,79.4188,70.4114,-9.0075
Nd5(YHo)2,23.0724,26.3237,3.2513
IrOs3,43.0283,47.5255,4.4973
NiICl2,6.653,8.053,1.4
As2IrAu,27.8567,29.9605,2.1038
AsIrAu2,37.2372,39.4911,2.2539
IrOs5,42.0514,46.2879,4.2365
Pr2SmAl2,0.3925,3.1761,2.7835
Pb2C2F,41.996,37.2917,-4.7043
Al2RhPb,26.7165,26.2704,-0.4461
Nb2AgPb,92.2527,76.6836,-15.5691
BeTeIN2,34.1757,28.3229,-5.8528
K(SrRh)2,23.8453,19.5934,-4.252
NaRuRh,39.5166,33.7567,-5.7599
Pd4Pt3,48.6868,38.6673,-10.0196
TiSn2Pb,33.612,30.0708,-3.5412
Ac2TbNi3Ge4,25.8857,23.7003,-2.1854
ReC2S,58.6636,45.6576,-13.006
ReAsW,30.8798,35.4715,4.5917
Tb2Y5Ho2,19.8944,23.1829,3.2885
AcZnPt2,62.2178,50.6126,-11.6052
Na4La3YTe8,36.3908,31.5622,-4.8285
Ga4CuTc,18.7795,16.9836,-1.7959
CdReSb2,66.6488,53.4931,-13.1557