Formula,E_hull_DFT (eV/atom),E_hull_ML (eV/atom),Delta (ML - DFT)
InRe2Rh,37.6468,37.0808,-0.566
ThCoCu,40.6162,37.682,-2.9342
Pr2ErF11,-0.0,1.6208,1.6208
YCrRu2,26.135,25.9465,-0.1885
ScNb2,87.5283,71.8766,-15.6517
AlCuNi6,6.6552,8.1902,1.535
LiP2RuS,22.0347,21.7461,-0.2886
Sm2Dy2YHo2,25.1773,27.3886,2.2113
Th2CoCu,51.8673,48.8054,-3.0619
PrEr2F11,2.0807,3.9577,1.877
AcYHoIn,32.7018,34.2084,1.5066
MnCuSb2Te,48.2243,40.6886,-7.5356
LiP2RuS,21.2625,21.7461,0.4836
NaErGa4,14.2508,15.1839,0.9331
CaY2Zn,17.0238,13.9609,-3.0629
EuLuPdRu,23.5406,26.4462,2.9056
Na(InI2)2,21.8092,21.4281,-0.3811
MnNbSb2Te,75.3397,61.486,-13.8538
CaY5Zn4,15.422,12.9915,-2.4305
CdRuBr,22.8088,20.896,-1.9128
MnAgSbTe2,52.4244,44.0073,-8.4171
EuTmSnPd,26.6421,26.3381,-0.3039
Mg2Al12Ni7,3.6008,5.1156,1.5148
TbCeMn,50.4634,45.7737,-4.6897
Ta2Be3,14.1998,17.263,3.0632
Ca2MnTe,37.6623,32.5471,-5.1152
SrCe2YSe4,33.029,28.1085,-4.9205
LiTaPb,30.943,33.0831,2.1401
GdThZnPb,38.6583,41.3191,2.6609
Mn3SbTe,77.9448,63.1547,-14.7901
Cd3InSb,24.8356,23.7087,-1.1269
CaY2Zn,17.2094,13.9609,-3.2485
Y2ErCu4,26.7553,21.781,-4.9744
RbMnAgTe2,38.6668,33.2563,-5.4105
Ba2SrNi,9.5628,9.2099,-0.353
AcZnH7Pt2,22.6506,19.0181,-3.6325
Mn2TeRh,72.8954,60.1354,-12.76
RbMg14W,5.6733,5.6804,0.007
Sr2GaBi,21.9441,23.692,1.7479
MnSbTe2,57.2719,49.3679,-7.904
MnAgTe2,54.0014,45.4574,-8.544
AcGaH6Pt,17.9434,15.2569,-2.6865
Cu2ReTe,24.5491,25.7505,1.2013
DyErCdAg,26.5094,26.8568,0.3474
LiTePb2,36.6632,36.8969,0.2337
Rb2Y2RuO6,24.9405,21.2472,-3.6933
CuRe2Te,32.8886,35.4562,2.5676
Mn2TeBr,63.3881,52.4178,-10.9703
CaY3Zn4,10.1598,8.8695,-1.2903
PaFeSn,41.3663,40.1105,-1.2558
MnIn2Te,45.5567,40.1369,-5.4198
MnTe2Br,48.5635,42.6373,-5.9263
CdReTe2,65.3222,55.3177,-10.0045
LiTe2Pb,33.9952,32.5795,-1.4157
LaPtBr2,41.7145,31.4157,-10.2988
BaMnTe,46.9516,40.9534,-5.9981
TaCdSe2,37.7709,34.9118,-2.8591
Mg14GaSi,3.8299,4.116,0.2861
AcInH6Pt,19.1912,16.6694,-2.5218
Sb2TeCBr,49.2681,39.5075,-9.7606
YTlW2,46.083,39.7663,-6.3167
ZrAlTl2,50.8279,48.1392,-2.6887
AlHgW,14.32,17.3849,3.0649
YZn2In,14.113,14.0019,-0.1111
TcSb3I,50.4167,42.58,-7.8367
AcCr2H7Pt,15.6282,13.9339,-1.6942
YTl2W,48.9458,41.5313,-7.4145
ZrAl2Tl,38.7234,36.3881,-2.3353
K2TaInSe5,30.2401,25.4566,-4.7835
MnAlTe2,46.9038,41.1884,-5.7154
LuGaIr2,24.6956,29.7891,5.0935
Zr2AlTl,62.5433,56.1498,-6.3935
Al2HgW,11.8241,13.7313,1.9072
Cs3AuO2,29.5848,25.8216,-3.7632
TbFe6,4.3781,6.452,2.0739
Zr2AlTl,62.3261,56.1498,-6.1763
BaMn2AgTe4,44.5427,37.6444,-6.8983
Zr2AlTl,62.4101,56.1498,-6.2604
Mn2TeIr,71.3239,61.4994,-9.8244
NpTlPd2,39.0487,40.7849,1.7362
SrMn2Te,63.8867,53.1439,-10.7428
TaMn2Te,69.8073,60.3611,-9.4463
AcAl(H4Pt)2,20.4758,17.3919,-3.0839
Zr2TaCr,86.1983,67.98,-18.2183
SbTeMo2,31.7439,29.8556,-1.8884
NbCo3Si,36.5173,29.8735,-6.6438
Hf5Al3H,73.0413,51.1049,-21.9363
Mn2HgIr,60.6814,51.9642,-8.7172
TaMoSe2,37.4102,34.5046,-2.9056
Mn2NbTe,95.9155,78.0615,-17.854
TaSb2TeAs,36.3972,33.4397,-2.9575
LiTbLuSc,16.9101,19.259,2.3489
TmMn6InSn5,57.6316,48.6327,-8.9989
Tl(CdAu)2,34.4129,36.0992,1.6863
KRe2Te,34.9904,35.7616,0.7712
ZrPtBr2,54.0941,43.0034,-11.0908
KBeTc2,51.1617,42.4394,-8.7223
DyErCdIn,23.5438,26.0375,2.4937
Y2Zn2In,11.9803,11.6731,-0.3072
Ca2YZn2,10.0847,8.2229,-1.8618
Ca(YZn2)2,12.972,11.6942,-1.2778
SiSbCl,21.5757,18.1262,-3.4495
GaSiOs2,20.002,22.7832,2.7812
Y2ZnIn6,19.1248,18.103,-1.0218
Sr2Sm2Rh3,31.5535,27.5296,-4.0239
LuIn2Ag,25.8585,25.7834,-0.0751
MnSiAu2,52.256,46.4977,-5.7584
Rb2Sn2Sb,14.9231,14.2637,-0.6593
MnSiAu2,52.3792,46.4977,-5.8815
TaInRh,35.6541,33.3314,-2.3227
KTl2ZnPd,27.7277,28.1508,0.423
Mn4SiAu,76.9543,63.16,-13.7944
CuSiMo,28.3605,18.9749,-9.3856
ScPa3,51.9033,54.7343,2.831
ZrPt2Br,72.4082,57.0535,-15.3547
ZnReSn2Os,36.9687,31.8093,-5.1594
Pm2TmPd,24.1666,27.1466,2.9801
K(Pr3Se4)2,22.8915,17.9109,-4.9806
CePmHf,64.6433,52.4496,-12.1936
Al2AgSb,20.7334,19.5694,-1.164
LiZrPb,40.3638,39.4303,-0.9335
La6PrY2Ho,36.6244,28.2735,-8.3508
Zr2Ga2Au,45.6335,42.4275,-3.2061
CaBiPS2,46.4805,37.0273,-9.4532
BaPa2AgO7,12.9461,13.6081,0.662
BaBeN2,16.8591,14.3257,-2.5334
DyEr2Cd,26.25,28.8979,2.6479
Pr3Ag(Ge3Pd)2,9.6043,9.4204,-0.1839
PmScTlPd,28.2891,28.5725,0.2834
Sr2TlTePd,26.8293,27.2841,0.4547
Sc2Pa,25.9251,29.8531,3.928
SiRuCl,16.3768,14.0988,-2.278
Gd2AgPb,35.6883,36.1215,0.4332
RbTaBi2,32.6108,35.0309,2.4201
Tl2AgRu,38.2319,37.4347,-0.7972
TaSbSe2,44.482,38.4653,-6.0167
GdAgPb2,41.1443,40.9792,-0.1651
FeRu3Cl,26.2399,20.817,-5.4229
Tl2Cr2Pb,30.2746,30.5548,0.2803
ZnAsP2S,24.8705,22.9195,-1.951
SrCaC2,37.8521,26.7506,-11.1015
AcCo2H8Pt,13.759,12.7654,-0.9936
CsMnTe2,46.906,42.3722,-4.5338
AcTa(H4Pt)2,23.2755,20.1289,-3.1466
Ga3IrC,26.5729,23.3739,-3.199
AcV(H3Pt)2,36.8895,30.1424,-6.7471
AcZr(H3Pt)2,33.7199,28.6086,-5.1112
YCr,14.6324,10.8194,-3.813
PrNdSbH,10.3057,13.3645,3.0589
NdDyErCd,24.9954,27.6809,2.6855
Na3Al5F12,7.1214,7.6059,0.4845
Sr3(ZnSi)2,24.4746,18.3708,-6.1037
NaTmSe2,36.2239,31.6598,-4.5641
Pr2MgF,4.6358,6.0983,1.4625
BeAsI2,24.5103,22.5398,-1.9704
SiRu2Cl,19.6254,15.2661,-4.3592
YSiNi4,32.6953,29.5173,-3.1781
Er3In3Ir2,28.7729,30.5941,1.8212
Tl2ZnPdI,30.4485,30.7859,0.3374
Sm8P3SeS4,29.129,28.7946,-0.3344
YZrAlF2,40.9804,34.7451,-6.2354
Zn2HgPb,17.1344,17.9796,0.8452
BeTl2PdPb,37.2489,36.9425,-0.3065
AcCu(H3Pt)2,27.4471,23.2578,-4.1893
Ce3Ir7Ru2,36.6411,36.6677,0.0265
MnZnTe,49.9369,42.8187,-7.1182
Cs3Tl7Rh2,43.8454,42.1686,-1.6768
Tb6Pm2YHo,20.5261,22.7559,2.2297
Nd2YHoEr6,22.1984,24.4156,2.2172
NdSm2YHo6,21.2521,23.4467,2.1946
CaMnTe2,46.6293,40.6579,-5.9714
Y2Cr2In,39.0023,30.6725,-8.3298
Y2ZrTiCu,52.284,40.1679,-12.1161
BaMnSbTe2,45.1821,38.7582,-6.4239
Y2GaAu,20.713,22.7089,1.9959
ZnCd3Sb,22.4609,21.1784,-1.2825
RbTa2Bi,28.949,32.4927,3.5436
Al2(SO4)3,2.7429,3.6349,0.892
Pr3Bi2Ir,22.4136,24.5929,2.1793
Rb3Y3CrSe8,33.4923,26.5715,-6.9208
Pr4AlTl,1.4718,3.6925,2.2207
TlOsPd2I,31.8688,32.355,0.4862
SmYOs,35.1295,34.1928,-0.9367
Sc2B,3.5452,6.8003,3.255
YTlPb2,42.1694,44.4418,2.2724
Tl2NiPd2,24.7666,26.8885,2.1219
BaTaCo2,36.0683,25.994,-10.0743
YTl2Pb,41.9308,43.7546,1.8238
TaPt4W,63.0642,49.7837,-13.2805
K2NaBi2,28.6908,28.3401,-0.3507
BaTaCo2,36.6002,25.994,-10.6061
Er3(InIr)4,30.5324,32.7649,2.2325
Cu2Ni,6.5715,9.2877,2.7162
Er3HgAu4,29.7972,32.4526,2.6555
CaTb3(Sm3Y)2,23.5796,23.7683,0.1888
KMg6Cu,6.9224,5.9685,-0.9539
MgAsPS2,33.6059,25.4856,-8.1203
Y2CrIn,35.8313,30.9341,-4.8972
YGaAu,13.0647,18.5367,5.472
Ta2InRh,35.6913,34.8789,-0.8124
SbPtBr2,47.5032,39.8999,-7.6034
LiTbC,24.7189,21.1999,-3.5189
Ac3Pt2Au3,63.3691,58.3957,-4.9734
Mg15Bi,5.8103,6.3946,0.5843
Mg15Mo,3.6673,4.2374,0.5701
SrScAl,4.0868,7.0455,2.9586
K2BaHf,40.4323,29.137,-11.2953
Pu2Bi3,53.0412,55.5064,2.4652
Fe3SbC,32.0251,23.7132,-8.3119
TaIrSe2,44.3421,40.9665,-3.3756
YbCo,7.719,13.3638,5.6447
Ac2BrO2,26.2446,27.3711,1.1265
TlAgSbPd2,34.1036,31.044,-3.0596
CdReI3,50.0113,41.6652,-8.3462
Tl(SbPd)2,31.6284,30.0761,-1.5523
Cs2PIrBr6,18.4667,17.3345,-1.1322
YbCo,20.8725,13.3638,-7.5087
ScTlCr,32.4481,29.6439,-2.8042
TlInTe,37.4839,38.1302,0.6463
CrRhC,33.6582,29.7487,-3.9094
Pa3Cr2Si7,26.9278,24.2824,-2.6454
Be3CdI,18.5953,17.5508,-1.0445
Sr4Zn2Au,16.4365,17.6276,1.1911
TaTcNi2,35.2662,34.1287,-1.1375
InTeRh,36.9187,32.7918,-4.1269
NdYHoBiO7,11.2554,11.5057,0.2503
Pr2BrO2,7.5597,3.6475,-3.9122
Ba2CuSe2,15.8956,12.6101,-3.2855
Pr3(YRu)2,32.6824,29.0551,-3.6273
InTeRh,37.3545,32.7918,-4.5627
InGaSb,21.0627,20.6267,-0.436
Zr2PF,51.0023,44.893,-6.1093
Mn2InAgTe4,52.1216,45.2728,-6.8488
NaHoSn4,22.4501,22.8801,0.43
InGaSb,17.8718,20.6267,2.7549
Na(NpSi)2,31.3347,30.8414,-0.4932
CdGaSbRu2,23.0656,21.8331,-1.2324
Rb3AgBr4,6.1777,5.3952,-0.7825
TlAsPdAu,27.424,30.0229,2.5989
CsRb2Ag,13.6072,11.7452,-1.862
Rb4AgBr5,8.2546,7.4638,-0.7908
TlPdRu3,25.8269,27.2289,1.402
Nd3Tm7Sc2,25.1276,26.9352,1.8076
InTe2Rh,38.3714,33.8341,-4.5373
Ac2AlH6Pt,21.8839,20.8336,-1.0504
RbBaNa2Ga,13.8079,10.5763,-3.2316
Ag2P,22.3231,18.6914,-3.6317
BaMn2Al5,31.3246,25.712,-5.6126
LaGdO,46.0358,42.7868,-3.249
Sc2CdSn,15.8939,16.3215,0.4276
SrGa3Bi,18.9432,20.2968,1.3536
LaTlSnPd,37.6881,33.5299,-4.1582
Li2LaAu,24.747,22.4307,-2.3164
Mg3CuW,15.5238,14.05,-1.4738
CaSb2Os,35.6634,32.7997,-2.8638
CaMg2TiH8,2.9305,3.4393,0.5088
Mg3CuW,16.0535,14.05,-2.0034
Sb2TeIr,43.8245,42.5807,-1.2438
Sb2TeIr,43.947,42.5807,-1.3663
SbTe2IrPb,45.3318,43.239,-2.0928
CuSbAs2Se,36.9006,32.8298,-4.0708
ZnCu(H3Ir)2,10.4346,9.616,-0.8186
Mo2P2Os,20.4115,17.3047,-3.1068
Na2Cd4InSn3,20.7339,20.519,-0.2149
P2BrCl,8.9156,7.7934,-1.1222
ScIn,1.78,5.083,3.303
NdTlZnPd,24.7921,27.0233,2.2313
HoTmTlPd,31.3275,34.1221,2.7946
NbAl2Sb,43.4393,37.8257,-5.6136
NaPt2Se3,52.8983,39.7877,-13.1106
AgHgBr,14.1027,12.8441,-1.2586
YVTe2I,50.3737,42.6251,-7.7485
ScSb,0.4745,20.5862,20.1116
Tm2Cu2Si3,12.1503,11.28,-0.8703
BaZrGe2H,24.2396,21.5439,-2.6957
Na3NbPb,54.8173,45.7685,-9.0489
FeSnBi2,28.3456,31.2172,2.8716
MoP2Os,24.2605,23.0157,-1.2448
Ti(TlPd)2,23.7907,25.7817,1.991
Cs2AgSb,28.2223,25.6397,-2.5826
CrTc3I,63.5407,52.7316,-10.8092
Mg3Si4,7.152,5.1956,-1.9564
OsRuBr2,26.4353,25.6945,-0.7408
TaWSe2,43.4304,40.3976,-3.0328
Mg6NbCu,23.0999,18.3467,-4.7532
TlIn2Ag,28.0306,27.8866,-0.1441
OsRu2Br,27.6583,26.9616,-0.6967
Lu4NiH2,15.7179,17.5104,1.7924
Gd2ThCd,36.041,38.8101,2.7691
NaScCd2,16.8826,17.0946,0.212
Os2RuBr,33.6267,34.6826,1.0559
YSc2Ag,0.0,0.1713,0.1713
Ca(CrH4)2,5.4865,5.0472,-0.4392
K(CdAu)2,26.6758,27.6237,0.9479
NaSc2Ta,72.504,59.8879,-12.6161
NaTaCd3,25.073,24.8856,-0.1874
NaTaCd,23.4089,25.9283,2.5194
Na3ScCd,20.4841,17.8129,-2.6712
CrAsPd2,8.5586,10.2347,1.6761
Er3ThAu4,42.1354,44.407,2.2715
SrTaGa2Si,43.8593,33.0052,-10.8541
Tl2SnPd,34.6805,34.105,-0.5755
Pm3ZnCo,23.213,19.7868,-3.4262
P2WCl,65.5968,56.9825,-8.6143
Mg3Si4,7.045,5.1956,-1.8493
Mg3Si4,7.0568,5.1956,-1.8611
Mg3Si4,7.0517,5.1956,-1.8561
Ac3HPtPb,50.3071,48.1965,-2.1106
Sr2MgTlP,16.6476,17.3874,0.7398
Tl2CdAu2,40.8803,42.0002,1.1199
RbCrTc3,61.0651,50.7398,-10.3253
Np2Si3Ge2,21.8245,21.2276,-0.5969
ZrAlSe2,48.9611,41.7761,-7.185
Ac2LuTh,57.304,60.0387,2.7348
NaTiSb2I,32.8568,27.8152,-5.0417
NaAcCdIr,37.8573,38.8613,1.004
TlCd2Au,34.1485,35.2101,1.0615
TmLuTlPd,32.6371,35.4212,2.7841
Ac2LuTh,57.4669,60.0387,2.5718
Ti2H5,1.236,2.2441,1.0081
TlCd2Au,34.1535,35.2101,1.0565
TbZrSbH,35.8145,34.8283,-0.9862
Ac8Pt7,75.0698,64.4963,-10.5735
BaNa2Sc,11.8927,11.5554,-0.3373
Cs3Sr2I7,20.1353,20.472,0.3367
GdTlAgPd,31.9072,32.2616,0.3544
NaIn2Sn,18.4716,18.7123,0.2407
Y2MgNiN,68.5317,58.9773,-9.5544
Sc2HgPb,15.2308,17.5094,2.2787
PrHo2Pt,34.7761,31.0629,-3.7132
NaTb2CrO5,1.6575,2.8944,1.2369
GaNiW2,25.0077,27.4496,2.442
NaIn2Sn,21.1725,18.7123,-2.4602
K2CaW,18.2912,18.1409,-0.1503
TlMoPd2Au,34.0307,32.0416,-1.9891
LiTlAsPd,19.5437,21.1773,1.6336
YHfBr3,38.2343,29.2275,-9.0068
Mn(PdPt3)2,74.6479,56.1069,-18.5411
Tl(PbAu)2,46.8903,48.7158,1.8256
YHfBr2,44.9565,34.8263,-10.1302
MnAgIr2,54.5594,50.9976,-3.5617
TaTlNi,33.5057,34.7448,1.2391
Ba2TlTePd,21.3731,21.7674,0.3942
Na3Pm(NdSe3)2,34.749,29.1531,-5.5959
Pr4ErHg2,0.0,0.49,0.49
Y2WBr,23.9783,17.6899,-6.2884
BeZnSb2,30.6833,23.4163,-7.267
TlInRh,39.8962,36.9452,-2.9509
PAuF2,13.3603,14.8712,1.5109
FeOs2W,94.1666,83.5351,-10.6315
K2SrBe,13.4252,10.2057,-3.2195
Cr2Ir2I,28.0291,26.911,-1.1181
Cs3Ba,18.3429,18.5152,0.1723
NaTeWI2,30.3988,29.3383,-1.0605
TmLu2Sc,25.7577,28.0797,2.322
AlPt3N,56.0777,42.4127,-13.665
Y2WBr,29.7718,17.6899,-12.0819
Li2LaOs,23.8147,22.226,-1.5887
CsSc2Ag,17.0502,16.6424,-0.4078
CsCeAsCO7,3.2214,2.5702,-0.6512
Cs2TmAsCO7,4.4072,4.43,0.0227
Na2HfTe,55.3904,42.8998,-12.4906
IrPt2Br,59.6841,48.5474,-11.1367
TeCO2,29.1165,22.6421,-6.4743
IrPtBr2,41.3186,36.0574,-5.2612
Ta2TlNi,34.4278,37.8373,3.4095
TlInRh,40.0372,36.9452,-3.092
AcTh(AsPt)2,53.7036,47.1477,-6.5558
TaAg2Se,37.274,32.3592,-4.9148
TaAg2Se,37.0648,32.3592,-4.7056
Ta2TlNi,34.2756,37.8373,3.5617
DyHf2Sc,80.1208,59.8528,-20.268
TlTe(PS4)2,46.7238,38.8741,-7.8496
CsNpPCO7,11.9167,10.0939,-1.8228
Cs2TbAsCO7,4.0791,3.531,-0.5482
AcCo2Pt3,57.0743,45.5953,-11.4791
Y(BiS2)2,43.9764,36.7904,-7.1861
ReTeIr2,42.8391,45.0227,2.1835
CsScPCO7,29.7508,24.2174,-5.5333
CsScPCO7,29.7563,24.2174,-5.5388
FeSn2Se,18.0925,18.3558,0.2633
YHo2(CrC2)2,53.9744,44.8685,-9.1059
ReTeIr2,42.7723,45.0227,2.2504
YPAu,21.3558,18.7919,-2.5638
Re2TeIr,42.0687,44.377,2.3083
DyZnPd,17.0335,19.375,2.3416
PmNp2F11,8.1247,10.5045,2.3798
Ac4SnHPt2,51.0294,46.3977,-4.6316
Ac2H4Pt,30.9057,28.3798,-2.5258
ReTe2Ir,42.592,42.9264,0.3344
Mg6CoCu,11.5115,9.4677,-2.0438
LiTmThTa,33.7473,37.1266,3.3792
Y(GaRu)2,10.041,10.6078,0.5668
Pr3Sm,2.6945,4.9537,2.2592
Zr2AlSe,61.3628,54.0146,-7.3482
DyErCdAu,30.2146,32.5669,2.3523
YPAu,39.4075,18.7919,-20.6155
YPAu2,41.2316,37.1042,-4.1274
TbTm2Au,33.5103,36.2959,2.7856
Y6Ga2Ru,15.0236,15.1363,0.1127
GeBi2C,46.1657,42.0967,-4.069
YbEuN2,15.4491,18.1972,2.7481
Tm2Co2I,13.1911,18.1319,4.9408
CaHf2ScMo,71.3981,52.6985,-18.6996
Mg6CrCo,6.0688,5.0728,-0.996
TbTm2Au3,37.4215,39.8833,2.4618
MnIn2Cu,36.6492,32.6622,-3.9869
CsMg6Cr,6.4937,6.5851,0.0914
AcH(PtAu)2,55.9355,48.6557,-7.2798
Ir3SeI,41.791,40.726,-1.0649
Ta2AgSe,38.4925,36.9681,-1.5244
NiPIrS2,41.2257,33.182,-8.0437
NiPSeS2,39.6704,31.6013,-8.0691
RbInC,23.5426,21.1488,-2.3939
NaLiIn2Cu,15.2638,14.2394,-1.0244
Li5TlPd,9.9873,11.1369,1.1496
IrPt2Br,59.7801,48.5474,-11.2326
Y(HfPt)2,86.8904,62.7683,-24.1221
GeBiC2,41.935,34.3293,-7.6057
ZrTlPd2,40.6351,40.4645,-0.1706
CsLaMg6,11.5951,10.6876,-0.9074
ThOsN3,29.1777,26.7919,-2.3858
CrNi2Pt,38.1984,31.4527,-6.7457
AcPHPt6,60.8697,45.3816,-15.4881
BaCu4Si,8.584,7.9715,-0.6125
ThCd4Pb,32.5786,33.8642,1.2856
ZrMn2W,75.1157,66.4503,-8.6653
TcTeBr2,39.4756,35.0323,-4.4434
Dy4TcPt,29.1799,27.5421,-1.6378
Zr2AlGe2,44.4538,38.6418,-5.812
FePN3,14.0999,13.2915,-0.8084
Ir2PtBr,48.8325,43.4241,-5.4084
SrAc6Y,52.9568,52.7993,-0.1575
Mg2PPb,12.4129,14.9867,2.5738
CsInGa2Tc,30.7103,28.261,-2.4493
Tc2Te2Br,51.7052,45.0705,-6.6347
Ba(ZrGe)2,36.694,33.839,-2.855
SiTc2Cl,51.2614,42.7504,-8.511
Hf4TcHg,111.0076,80.8412,-30.1664
Hf4TlTc,119.603,89.4191,-30.1838
GdZnSi3,16.6221,13.322,-3.3001
Dy2Er3Cd2,25.74,27.5056,1.7656
Rb3Sr2Cl6,9.408,8.2609,-1.1471
CuSbRh3,40.8749,30.8115,-10.0634
Ag2IrPt,49.1562,41.275,-7.8812
Nb3Tl3Pd2,76.7332,66.6727,-10.0605
Li4TmIn,9.4013,9.7382,0.3369
Gd2ThPb,44.0905,47.0263,2.9358
Cr2Ni2Pt,33.8507,28.3782,-5.4725
Na3Bi2PbSe6,43.0467,37.0745,-5.9722
Th2CdPb,51.0868,54.4193,3.3325
Tc2TeBr,60.4548,51.5665,-8.8883
BaSm2Cu,14.9875,16.706,1.7185
Ac(HPt2)2,54.7055,41.6771,-13.0284
YReBr2,19.4872,21.0007,1.5134
TiTl3Pd,35.7984,36.8892,1.0908
TcTeBr2,39.699,35.0323,-4.6668
Sr2Y2Pb2S,32.4645,29.1474,-3.3171
KHfB,48.3203,35.8723,-12.448
Tc2TeBr,60.038,51.5665,-8.4715
Sr2Ge3Au5,28.9039,29.638,0.7341
LiIr2I,23.3865,26.2075,2.821
Tl2AgPt,55.7587,48.1681,-7.5906
SrYPb3,39.3899,38.7148,-0.6751
Mg6NbSb,25.304,21.232,-4.0719
BaTa2Se,30.4744,30.8058,0.3314
SrYPb2,34.9006,35.2286,0.328
HfTa4Tc,63.7851,57.3779,-6.4072
SrReWC,49.1625,39.4993,-9.6632
Y2CrO,49.3584,40.2127,-9.1457
LiIr2Au,28.6144,36.8832,8.2688
FeP2SI,33.6124,29.8882,-3.7242
La4AgBr,41.7938,31.1571,-10.6366
Mg(TlPd2)6,27.2188,28.3174,1.0987
Ba2Na2Sr5Ca,11.2663,10.6068,-0.6595
Pr3SnH3C,9.2506,7.1879,-2.0628
Tm10Sb2HPt4,43.3573,37.7288,-5.6285
LiSb3Pd,31.4297,27.097,-4.3328
BaNaSrCa,12.5304,10.7718,-1.7586
VP2SI,45.6077,38.3847,-7.223
ZrTlPd3,41.2465,38.9769,-2.2696
CaOsPb,34.3471,36.7589,2.4118
NaZnSb2I,29.1092,24.8703,-4.2389
Tl2BiPd,40.2453,42.3352,2.0899
HgAsPt2,47.4176,35.6743,-11.7433
Sr4ErH10,5.0858,6.8564,1.7706
CaOsPb,33.5283,36.7589,3.2306
Ac6OsPt2Br3,53.0885,50.0044,-3.084
P(SeS2)2,47.4283,37.6794,-9.7489
Tl3CuPd6,22.2328,24.4122,2.1795
Nb2GaF11,19.3849,17.9571,-1.4278
CaOs2Pb,36.3443,39.0672,2.7229
K4Ba2Ag,11.5661,9.8202,-1.7459
HfFe2F11,9.6854,8.2616,-1.4238
Tl2NiSb,42.9502,39.0683,-3.8819
LiCaOs2,23.4816,25.8172,2.3356
LiCaOs,16.5178,18.4413,1.9235
CeMg6Ti,7.1774,6.9354,-0.242
Li4Tl3Pd,21.3098,22.3637,1.0538
LiCaOs2,22.6676,25.8172,3.1496
Lu2SbPd,32.201,32.4646,0.2637
SnOsPb3,45.7865,46.3652,0.5787
LuSbAu,41.3607,40.9431,-0.4175
CaInOs2,22.4438,27.488,5.0443
CaOs2Pb,35.9587,39.0672,3.1085
BaAl6Ir,11.9085,11.7167,-0.1918
TlTePd2,19.3585,21.6628,2.3043
NaCd(SnTe2)2,31.3398,30.0282,-1.3116
Nb(HgI4)2,29.2453,27.3965,-1.8488
YCr3Si2,25.4494,19.6829,-5.7665
Ba2LaO4,14.176,13.1337,-1.0423
Mg6ZnSn,5.7627,6.1724,0.4098
Ca2YSi,24.8166,22.2214,-2.5952
SrTe2Ir,39.7116,35.451,-4.2605
CSeO,31.5041,22.323,-9.1811
TlTePd,32.8572,33.9608,1.1036
SbTe2WAu,43.7092,41.5891,-2.1201
PaZnFeSn,33.0662,32.3477,-0.7185
YSiO,25.98,23.3755,-2.6045
PaFe4Sn,32.919,27.8913,-5.0276
BaPtBr2,28.7198,21.8591,-6.8606
ZnGaF,4.4926,7.0845,2.5918
CrCuAu2,28.8372,29.1368,0.2996
NaCdAsOs2,29.8698,29.9316,0.0619
Cs2Sn2Pt3,50.8856,40.7734,-10.1122
Li2AuBr,23.5846,22.3635,-1.2211
Hf4TiGa3,75.3286,55.0406,-20.2879
Co2OsBr,23.2762,22.0744,-1.2017
NaPbW2,34.1965,37.6355,3.439
BeBiC2,40.0411,33.6607,-6.3804
Li2LaTl,25.753,23.385,-2.368
Ba2EuZn,8.9731,10.2861,1.313
YGaRu,11.5324,12.4526,0.9202
PrInPt2,47.7959,36.6293,-11.1666
EuZn,0.0,3.4879,3.4879
EuPt3,73.625,55.2854,-18.3396
CoOs2Br,32.5589,31.7524,-0.8065
LiAuBr,31.9799,31.6309,-0.349
KOsF6,11.5272,14.2755,2.7483
BaNb3Al,94.215,73.4959,-20.7191
Cs3AgOs,30.5318,29.0986,-1.4332
LaCo2Br,24.764,20.208,-4.5561
Pr2RuO,31.0277,28.5733,-2.4544
LiAu2Br,35.8883,35.0086,-0.8797
Tm2SiPb,31.7374,32.9006,1.1633
TlBiPd2,35.1153,37.1043,1.989
LiAuBr2,26.6801,26.4086,-0.2715
Zn2HgPt,25.9543,20.4616,-5.4927
Dy2Si4Ru5,22.9326,18.109,-4.8237
BaPt2Br,48.379,34.9766,-13.4024
LiDyIn3,15.0475,15.878,0.8305
LiAu2Br,35.569,35.0086,-0.5604
LaTm4Tc,27.8386,28.5058,0.6671
LiThPb,30.1057,35.2363,5.1306
YSi2,27.8925,23.2319,-4.6606
TlGePd2,19.406,22.8434,3.4374
NaSm(SnSe2)2,34.4902,29.7983,-4.6919
Na(Y2S3)2,29.6624,22.8914,-6.771
AsPAuC,39.4143,30.2976,-9.1168
YCr3,22.649,17.415,-5.2339
CsPCBr,22.3137,16.2838,-6.0299
PtWBr2,39.8456,33.4594,-6.3862
LiThPb,30.1331,35.2363,5.1032
Tc2PPd2,37.6183,33.6065,-4.0118
AcP2(HPt3)2,54.8156,41.2947,-13.5209
NbNi7,23.0241,21.0829,-1.9413
YCr,53.1587,10.8194,-42.3393
SrReN3,54.0212,47.6508,-6.3704
TlMoPOsRu,24.7587,25.7546,0.9959
PtWBr2,40.3141,33.4594,-6.8547
Sr6FeBi2,25.9155,25.4764,-0.4391
Sr2FeSn2,18.5214,17.7735,-0.7478
InRhW,35.9609,33.9259,-2.035
CaY(TmHg2)2,11.1405,11.3013,0.1609
NdSm4Tc,30.7057,29.545,-1.1607
MnFeSe2,52.0969,41.6519,-10.445
InBiTe2,39.4539,39.5222,0.0683
BaTh2Br11,12.8325,14.5255,1.6931
Mn3FeSe,72.5141,57.8381,-14.6761
CsNp2Br11,15.287,16.6386,1.3515
Pa2CdI11,24.8442,25.4532,0.609
Hf2TiRh,84.9515,61.8619,-23.0896
Fe2Si4Ni,22.3529,15.4935,-6.8594
InRe2Mo,32.2638,33.9452,1.6814
Tl2CdMo,34.634,36.0358,1.4018
PtW2Br,46.0751,41.649,-4.426
TlTc2Mo,63.4237,56.9261,-6.4976
TlPd3Au4,36.6408,38.1646,1.5238
Tl(InPd)2,20.9117,23.5605,2.6488
Rb2MnSb2,39.1179,31.7699,-7.348
TlIn2Pd,26.8651,28.6036,1.7384
SiNiAu2,29.0419,29.0572,0.0153
BePC,17.0448,13.504,-3.5408
HfPaCd4,48.1296,42.0914,-6.0382
InRhW2,36.7263,36.7885,0.0622
Tl2FePd,30.1841,31.7682,1.5841
NaBiSb,38.0218,35.4572,-2.5646
TcRu2W,60.4777,49.3953,-11.0824
Ni2PtCl,26.7735,22.0638,-4.7097
ZnI2Br,16.6312,17.0058,0.3746
AuSe3I,44.083,37.889,-6.1941
TaCu2Mo,29.2709,24.303,-4.9678
TbSm2YHg4,15.2977,14.9226,-0.3751
Pa2AgF11,9.3018,11.9331,2.6313
Ce2CuSi4Ir3,24.1523,22.961,-1.1913
Li4Mg5,1.597,2.4174,0.8204
Li2MgAs,5.2673,4.6764,-0.5908
Sc2Fe,24.2618,25.287,1.0252
Re2TeAs,33.4355,37.4956,4.0601
Y3AlO,28.1793,26.05,-2.1293
Zr2TlC,76.3775,64.9821,-11.3954
SiBi2AuI,39.3564,38.6094,-0.747
SiBRu3,20.6953,16.4003,-4.295
NaYTiI2,32.2409,25.8726,-6.3683
Tl(PdSe)3,31.1174,27.6877,-3.4297
Zr3TlC,81.7556,68.3029,-13.4528
Cr2(ReMo2)3,14.08,15.5262,1.4461
ZrTlPd,55.3469,51.9019,-3.445
ReSnTe2,31.7122,33.1366,1.4244
Co2OsAu,26.7205,29.0805,2.36
Ta2MnAu,55.2367,53.6325,-1.6042
Ta3MnAu,53.266,51.3675,-1.8985
Na2AgRuF6,13.6189,12.5223,-1.0966
La2TlPd,37.909,34.1978,-3.7112
Y2Al,15.2508,13.7508,-1.5
NiPbSe3,40.6575,35.0888,-5.5687
CuTeOs2,27.3483,30.6723,3.324
InRhW2,36.6251,36.7885,0.1634
NaSm(PbSe2)2,42.3494,37.4417,-4.9076
Ni2PbSe,28.3034,27.6937,-0.6096
Ni2SbSe,31.5907,25.6566,-5.9341
Tl2PdSe,38.4851,37.9492,-0.536
FeMo3As4,20.4243,20.1855,-0.2388