Formula,E_hull_DFT (eV/atom),E_hull_ML (eV/atom),Delta (ML - DFT)
LiSi2I,19.4127,15.8973,-3.5154
Dy11Cd4Hg9,15.246,16.5402,1.2942
NbAuSe2,71.7634,61.3558,-10.4076
Y2Hg2Ge,17.8017,14.572,-3.2297
CaCe(NiGe)4,15.7313,12.1449,-3.5864
Cs2BrN2,11.5465,12.3058,0.7593
Sc3CuSb,27.1361,21.9418,-5.1943
Ca11Zn4Hg9,4.0581,3.7828,-0.2752
Ag2P2Ru,12.1893,11.6531,-0.5362
Na(FeOs)2,29.193,26.9146,-2.2784
BePPt,31.7442,23.8935,-7.8507
TcPW4,80.7608,72.7054,-8.0554
ZrBeAs2,33.4042,27.6012,-5.8031
ScSI,39.5238,37.3714,-2.1523
IrPdS4,42.6145,34.6411,-7.9734
TlInGa2Ir,26.0559,27.4027,1.3468
ZrBeAs,41.2664,32.8427,-8.4238
K(SbI3)2,23.6026,21.2305,-2.3721
FeAs2Se,51.6705,45.4408,-6.2297
Ca2PrSmAg4,19.5344,17.7161,-1.8183
NaGd2Sc,22.2385,23.3469,1.1084
Zr2BeAs,55.0632,43.2661,-11.7971
PmLuPb2,40.5213,43.5071,2.9858
Rb2PuSnSe4,35.0855,30.6589,-4.4266
Zr2BeAs,55.2287,43.2661,-11.9626
Pa2CrCo,38.0126,41.2137,3.2011
Ca11Zn4In9,11.6327,11.3465,-0.2863
MgPaCo,24.6004,24.6491,0.0487
Ca4Pr9Cd11,8.7247,8.7722,0.0475
Sc3SiC2,28.5585,24.6106,-3.9478
NdGe3Ir2,16.3427,19.6221,3.2794
V(Ni2H3)2,9.1162,8.3859,-0.7303
V(Ni4H3)2,11.8597,11.2526,-0.6071
NdGeRh,20.3943,20.0838,-0.3104
TmGe2Rh3,32.1849,26.0873,-6.0976
PaTaSn2,36.4594,39.8291,3.3697
Ca2La3Pr7,12.5838,8.0537,-4.5301
NaPuCdGe,31.1899,31.5154,0.3255
Cs2Mo3O10,12.3671,12.6462,0.2792
TaSiOs,31.2683,34.3919,3.1236
TaSi2Os,26.7237,27.6303,0.9066
SiOsPb2,41.3864,41.6748,0.2884
CaTb2TmHg4,7.8234,9.9431,2.1197
SiSnRu,4.2381,1.9565,-2.2816
TlCu3,18.1621,19.7243,1.5622
SiOsPb,36.6744,38.1109,1.4365
Pr2Te3Br,16.3336,17.6578,1.3242
NdGeIr2,22.4676,27.2175,4.7498
CuGeRu2,7.411,12.676,5.265
CsGaO2,19.2623,19.581,0.3187
GaN,4.6073,8.4306,3.8234
BeP2Au,10.702,12.2783,1.5763
TaSiPb2,39.9318,40.4918,0.56
Ta2TlTe,42.6118,43.6574,1.0456
TaTlTe,44.7498,45.3895,0.6396
TaSiOs2,33.9854,37.2298,3.2444
TaSi2Os,18.2415,27.6303,9.3888
As2Ru,0.0,0.6214,0.6214
Ba2LiCu,4.4307,4.6045,0.1737
LaYErSc,25.0371,22.5013,-2.5358
Cs2TmNpO6,5.4276,8.8762,3.4486
SnSb2Os,33.1513,31.7628,-1.3885
CsP2Ir,19.5816,19.1969,-0.3847
BaSr2Pt,29.0854,22.9912,-6.0942
PaPtS4,63.0736,49.5099,-13.5637
Sc3SiC,23.8831,20.6254,-3.2577
AsIr3O,30.1005,31.5478,1.4473
Sm2AlGe2Rh5,28.193,22.1643,-6.0287
InCoP2,19.0617,17.2627,-1.799
PbAu2Br,47.1377,44.4804,-2.6573
BaMo2,5.8474,9.9134,4.066
Pm2MgTl2,26.9524,30.3548,3.4024
PbAu2Br,47.1113,44.4804,-2.6309
CeMg,10.0222,14.8283,4.8061
CrAuBr2,33.3524,32.9142,-0.4382
GeSbW3,35.5757,36.1704,0.5947
Y2AlHgN,39.6147,31.2926,-8.3221
NaLuAg2,30.0544,26.984,-3.0705
LuAsRu,8.052,12.8846,4.8326
MnAlSiIr,49.7896,44.2359,-5.5537
Sc2CrAg,20.6725,17.7135,-2.959
GaSbRh,33.7004,26.9529,-6.7475
S4BrCl,40.558,29.836,-10.7219
BPS,5.1634,10.3329,5.1695
HfIrPd3,49.1244,42.0458,-7.0786
Ta2AgP2,17.2962,17.4604,0.1642
FeCuNiMo,43.4002,35.5632,-7.8369
RbTaC2,33.6081,27.5605,-6.0476
Ca2InI,10.2195,12.6185,2.399
U2Al3Co,26.4289,26.4696,0.0407
FeReP2,47.8923,40.5685,-7.3238
HfIr3Pd,59.9182,53.4964,-6.4218
IrPd3Pb,30.7125,32.2625,1.5501
LiCeNi2,14.8383,14.3156,-0.5227
ZrZn2Cr,32.0927,26.0271,-6.0655
Ca(SmCd3)2,18.5808,19.5308,0.9501
CaCd2Au,15.5246,18.6149,3.0903
Ba8SnPb2,11.0474,12.0161,0.9687
Cs3AcPa2O9,16.0563,17.6825,1.6263
Y7(CoHg)2,37.123,29.6138,-7.5092
LaBeSb3,38.3507,28.3226,-10.028
PuCoSbO,29.4172,32.4973,3.08
Ac9La4Cd11,41.3726,39.2957,-2.0769
Ho9Tm4Cd11,24.2919,25.5621,1.2702
SrAu3C,43.4405,40.4772,-2.9633
Cs2Tl6BiPt,47.008,44.7868,-2.2212
Ca2LaYHg4,13.3755,10.6513,-2.7242
Rb2CoTcI6,23.6535,22.3544,-1.2992
SrOsPd2,23.15,25.9563,2.8062
Nd9Dy4Cd11,22.3595,23.6276,1.2681
BaNa(CuBr3)2,12.2314,11.8013,-0.4301
La9Ho4Cd11,32.6333,26.3351,-6.2981
Ca3Ac7La2,47.6023,46.2647,-1.3376
Zr2TlSb,72.8326,60.5751,-12.2576
KRb3F4,4.18,3.0003,-1.1797
BaPa(GeS4)2,44.1888,34.5895,-9.5993
ScCrCl2,22.2266,20.1883,-2.0383
NaH7Pt4,27.8169,17.8914,-9.9255
Ca2YHg3,9.4499,8.3511,-1.0988
Tb2LuSc,22.9949,26.2568,3.2618
Ba2Sr,4.888,6.0713,1.1833
As4RuI2,18.6988,17.757,-0.9417
Er3Lu,30.409,33.0214,2.6124
Sc(BIr2)6,29.5428,29.6224,0.0797
In3Sn3Au4,30.9018,31.9965,1.0948
BaLi2Cu,5.9294,5.3287,-0.6006
TbLu2Sc,24.835,28.0286,3.1936
YZr2HgN,63.3693,50.1636,-13.2057
SbOsS,28.3298,23.9769,-4.3528
TbLuSc,21.819,24.7735,2.9544
RbGaSn,7.3139,8.8723,1.5584
KAs2RhS8,44.5159,32.47,-12.0459
TbAuSe2,36.5706,35.0637,-1.5069
Y3HgN,38.6618,33.0389,-5.6229
Al5CuIr4,19.2067,21.8037,2.597
KLaCu,20.496,15.0348,-5.4612
YHgSb,31.2719,24.8744,-6.3975
ScBeCo2,6.021,4.8779,-1.143
RbGaSn2,12.9017,11.1834,-1.7183
YHgTeN2,35.1421,28.6328,-6.5092
Sc2Sb5Pd12,26.0578,21.8292,-4.2286
ReN2,98.2617,87.9546,-10.3071
CrTe2Au,35.144,33.8032,-1.3408
Dy2SbAs,20.8379,23.2322,2.3943
LiYInHg,19.0329,16.702,-2.3309
CuAg2HgI6,20.5512,19.5691,-0.9821
Y2ThSc,24.7648,28.3099,3.5451
YHgS2,39.9203,30.1318,-9.7885
Rb2NaTaV,50.2589,39.4503,-10.8086
NaTiAl,14.3362,13.7581,-0.5781
CaLa(YHg2)2,19.1339,14.8586,-4.2753
SrYRu2,19.7998,18.2283,-1.5715
Gd2SbAs,16.5402,19.0648,2.5246
Pb2WF,35.8898,36.3658,0.476
TaC2,34.224,27.7595,-6.4644
NaTiAl,14.7543,13.7581,-0.9962
Ta(RhN)2,18.2704,15.5154,-2.755
TlPbAu,47.5335,49.1936,1.6601
Sc4Mn2Pd,36.5217,30.7357,-5.7861
Rb2BiCF6,15.8073,13.1011,-2.7062
MnBeP2,28.0394,22.6833,-5.3562
TaSb2W,34.4737,33.7209,-0.7527
TaCBr,27.98,27.4228,-0.5572
CeEuAgPt,42.9497,36.1016,-6.848
PrTl2CuBr6,14.4341,15.5703,1.1361
Rb2AcCuBr6,10.6407,12.2025,1.5618
TaAs2C,30.7297,27.6661,-3.0636
ThPa(MnS4)2,64.5587,51.2157,-13.343
CeTaC,40.7715,37.3346,-3.437
Ba2TaSiC,24.0236,19.3221,-4.7015
LiBeSb,16.0202,13.6374,-2.3828
AsRuPt2,53.8392,38.8758,-14.9633
SmTaC2,45.3566,39.3073,-6.0493
Ta3BiC,45.3304,43.6868,-1.6436
Ba3TaC,21.4165,18.1013,-3.3152
LaYHgAu,36.7481,30.9128,-5.8353
Ca2AcPaAs4,21.5459,24.1724,2.6265
RbNbGa2Te,42.2178,35.922,-6.2958
TaAg2C,35.3044,32.638,-2.6664
Be2SiI,31.0895,29.4198,-1.6697
GdTaC2,46.3508,40.2803,-6.0705
Ta3InC,38.1211,36.7098,-1.4113
TaSn3C,33.591,30.6995,-2.8914
CsU2CoO8,12.4262,13.9128,1.4866
Pr2Pd3Pt,21.6531,18.126,-3.5271
Rb2PuCuBr6,15.1281,15.5556,0.4275
AlCu2Ir,12.042,14.2639,2.222
NpTaC,56.099,53.1576,-2.9414
K3UBr6,11.8023,13.0434,1.2411
Na2Tl4In2Pb3,40.8637,40.6111,-0.2526
Cs2NaPmI6,18.9816,19.7336,0.752
Tl2CuPbBr6,23.6836,22.8864,-0.7973
SrS4Cl,41.444,33.1964,-8.2476
Tl2CuBiBr6,20.9044,21.8148,0.9105
TmTl2CuBr6,17.5598,19.139,1.5792
ZrTl2Sb,61.2738,54.1611,-7.1127
Pm2MgSi2,1.1528,4.3816,3.2288
TaCI,18.0453,20.0604,2.0151
SrSnAu3,35.7487,36.3897,0.641
NaLiLa2As,27.8225,20.1016,-7.7209
NbTe2PbI,61.3374,54.4427,-6.8947
TaInNiC,31.1745,28.2756,-2.8988
RbTe2Pd,21.9407,22.8205,0.8798
Tb2DyHg4,11.3624,12.6767,1.3144
YTmTe2,30.9551,30.7187,-0.2364
NaTaC2I,42.2494,34.1574,-8.092
TaW2C,45.4185,43.8578,-1.5607
Y2TcPb,78.0116,70.7542,-7.2574
CaTaC,34.1078,30.1408,-3.9669
RbPd3Se,20.5816,19.2556,-1.3261
Li2TaPC,25.4118,19.7096,-5.7021
Re3NiPb,52.9387,45.4475,-7.4912
RbTa3C,38.9769,35.3778,-3.5991
Zr2TlSb,72.8977,60.5751,-12.3226
Ta2PC,25.2207,26.4318,1.2111
TaTl3C,51.9858,48.1141,-3.8717
TaBeAgC2,42.0699,32.803,-9.2669
TaAs2CBr,27.3339,23.8683,-3.4656
TaCuGeC2,37.5527,29.9432,-7.6095
Sr2Cr2N3,15.9422,13.9827,-1.9594
ScPd5Au8,34.8213,35.4575,0.6362
Na3TaC,36.0607,29.1852,-6.8756
TaInNiC,15.9514,28.2756,12.3242
KTa2NiC,32.3418,29.3254,-3.0163
Y2TcAs,66.9798,59.45,-7.5298
TaAgSb2C,45.3864,36.6699,-8.7164
BaFe2,2.4207,3.4961,1.0755
Ta2RhC,35.8637,34.2236,-1.6401
AlAsAu2,39.3945,36.8642,-2.5302
RbTaC3,48.2345,36.2873,-11.9472
HfIn5Ni2,31.9971,28.0084,-3.9887
TaSnRh2C,45.3871,35.6194,-9.7677
YHgGe2Sb,23.3129,19.0609,-4.252
Na2TiPb,29.8855,28.5197,-1.3658
TaW2C,45.826,43.8578,-1.9683
SbAsIr2,29.0453,31.5512,2.5059
Li3HfOs,38.5074,30.6562,-7.8511
Ce2CuGePt6,59.6035,43.2386,-16.3649
Ca3NdTl12,40.3459,41.4175,1.0716
AcNi(PS4)2,45.756,37.5846,-8.1714
Fe2PbBr,24.2012,18.0222,-6.1791
Ru2Pt4Rh3,69.5508,49.2775,-20.2734
LiAu7,41.2963,42.5262,1.2298
Y2NiHg,67.5198,54.2807,-13.2391
CoNiS4,52.0721,37.7551,-14.317
ReHg2Mo,17.6229,16.683,-0.94
Y2NiHg,67.7332,54.2807,-13.4526
Tc2IrBr,60.9754,55.5726,-5.4028
BaRh(WS4)2,47.6963,37.1377,-10.5586
BePIrS2,38.1463,30.8785,-7.2678
Ca2TlHg3,9.5694,10.4713,0.9018
TcIrBr2,40.7871,40.0387,-0.7484
Y2Ni2Hg,60.5927,52.8508,-7.7419
LaCe(HgPb)2,26.1365,25.035,-1.1015
Sn(RuO)2,42.9738,36.4565,-6.5173
CaPm(SmCd2)2,19.2434,21.4501,2.2067
ReHg2Mo,17.1906,16.683,-0.5077
Ca2In16Pd7,17.6436,18.414,0.7704
SrPm3Rh,27.1612,25.9907,-1.1705
BeCuP,0.0,8.4311,8.4311
CoSnRh2,25.3206,21.0562,-4.2645
CsSmS4,39.9777,32.4495,-7.5282
TaRu2N,32.7422,33.8816,1.1394
Ga2Sb2Au,27.4822,24.4358,-3.0464
Cs2BeAs2,13.9618,13.2922,-0.6696
Y2SiHg,35.0875,29.2432,-5.8443
Sb2Te2Se,40.9379,33.767,-7.1709
NaLiBiTe2,32.6637,30.6253,-2.0384
Y(SiHg)2,20.6405,17.0876,-3.5529
Mg2ScPd2,11.8529,11.742,-0.111
Ba2Mo,3.4296,6.0587,2.6292
YSiHg3,17.8458,15.1436,-2.7022
NaBeTe2,27.4796,25.3964,-2.0832
LaHo4Tl15,46.1124,46.2533,0.1409
Sm2AlGe4Rh3,26.9446,22.5762,-4.3684
YHgP2Se,25.2147,18.6587,-6.556
PuInHgRh,35.0116,32.9879,-2.0237
Zn2PbSe,29.1007,27.3784,-1.7224
ScCoMo,21.7966,22.2457,0.4491
Ca2Pm2Sb3,23.6637,21.2398,-2.4239
YHgAs2P,22.2769,18.2296,-4.0473
CaY2HoHg4,16.1986,13.9026,-2.296
NaPS2,36.4809,31.8892,-4.5917
TcRh2Br,51.2057,41.963,-9.2427
K2ZrOs,42.2796,36.933,-5.3466
Ac3Y2Hg3,36.4421,34.621,-1.8211
Pd2RuRh,36.4607,31.4962,-4.9646
Ca2YHoRh4,32.9122,24.3406,-8.5715
Ca4SnHg2Ge,6.2235,7.4214,1.1979
Cs2TeW2,30.2222,32.9576,2.7354
Rb2GaSnSe4,23.8429,20.1247,-3.7181
P2PtSO,39.2613,30.7324,-8.5289
CaLaHgRu,17.9804,15.7288,-2.2517
CaLa2SmHg4,16.0052,12.3145,-3.6907
Li2AcNdIn4,22.0272,22.5228,0.4955
Ca3In13Ni4,13.6388,12.6873,-0.9515
Y4HgAu2,31.4929,29.5856,-1.9073
Ca4Zn2InGe4,8.9562,9.7476,0.7914
Cs2RbAgO2,9.6205,9.8941,0.2735
Yb3In3CuSn2,33.2121,32.2598,-0.9522
YHgPd2,21.8447,19.9656,-1.8791
YHgAu2,32.36,31.5179,-0.8421
YHgSe2S,40.6554,30.967,-9.6884
CaTm3Hg4,11.4656,12.954,1.4884
Ca2NdAs3Pd7,15.4181,16.1904,0.7723
GdYHg2,19.3778,18.0174,-1.3605
BeGa2Ni,5.7174,7.7095,1.9921
GaHgS4,35.7107,26.3822,-9.3285
Th(MgTl)2,34.492,36.3326,1.8405
MnBeRh,42.3697,34.3307,-8.039
LiInNiF6,2.9494,4.3373,1.3878
MnBeRh2,49.4317,39.2596,-10.1722
VNi3Os,39.2417,34.745,-4.4967
BeInP3,7.728,7.3645,-0.3636
CaHfOs2,50.8752,46.9019,-3.9733
Cs2Tl4Ni,36.8708,38.0211,1.1503
Ga3ReNi,30.4826,22.4649,-8.0177
YMnHg2,37.3632,30.07,-7.2932
GdGaCuNi,15.2604,15.1804,-0.0799
SrPa2PdS8,50.6102,41.1275,-9.4826
CeSnN,26.6617,24.7284,-1.9333
Er4TmS5,41.2717,33.8498,-7.4218
GaNiAsSe2,36.907,32.5751,-4.3319
SiP2SeO,24.8079,18.9638,-5.8442
Na2(LiPb)3,25.8505,25.4067,-0.4437
YMnHg,34.0819,27.2134,-6.8685
V2NiOs,76.2263,64.7986,-11.4277
SrPa2PtS8,56.5587,44.5608,-11.9979
Nd2Y2Hg,25.2694,22.5489,-2.7205
Pm4Pr9Ag11,16.5319,14.7174,-1.8145
Sc3SnW,21.8782,20.8097,-1.0685
Pr9Nd4Ag11,16.5115,14.6862,-1.8253
Li(PmPb2)2,36.9886,38.5873,1.5988
YMnHg,33.7973,27.2134,-6.5839
ScAlGa2Ni5,15.0034,12.449,-2.5544
Cs2TlF4,17.1662,16.7237,-0.4425
BiP2Se,28.1357,26.6998,-1.4359
Ga(NiAu)2,21.2923,21.9427,0.6504
NdY2Hg3,16.8127,15.1972,-1.6155
LiTbNi,11.0035,13.5358,2.5322
RePt2W,64.2365,52.7507,-11.4858
ScSn2W,29.3493,28.4909,-0.8584
U(GaNi)3,11.094,13.6617,2.5678
Ce2PuMn2,55.2517,52.0955,-3.1562
Th7Cd2Hg3,41.7956,43.3339,1.5383
GeSeS4,47.5302,35.3989,-12.1313
SrGe2Ru,8.7414,8.8765,0.1351
InCuN2,2.506,5.8222,3.3161
EuGa3Ni,11.5589,13.0766,1.5177
UGeS4,50.0789,41.4882,-8.5908
YHg3B,41.2025,33.4227,-7.7798
Tl2CuNi2,20.9,23.9203,3.0203
PdRu2S,20.0979,21.3263,1.2284
RbNi4S3,24.1678,19.2341,-4.9337
CaGa4Pb,15.0109,16.2087,1.1978
ReS4I,43.2611,36.8896,-6.3715
InPIrS2,42.3397,34.709,-7.6307
YAlHg2,19.136,15.1106,-4.0254
Pr6TlGa2,5.3596,4.1648,-1.1947
SrCd2Sn,18.5236,18.0457,-0.4779
V4Ni2Sb,85.648,66.3086,-19.3394
YTh(AlHg2)2,18.1504,16.5785,-1.5719
PaBe2Cu,25.5021,25.28,-0.2222
Pr6NdY12,9.6022,9.9171,0.3149
TcSb2W,49.0578,43.4479,-5.6099
SrSb2Ru,29.7919,26.5633,-3.2285
Pu2Mn2Ge,38.7964,37.4241,-1.3723
Cd7In3Sn2,19.66,20.487,0.8271
HoPaS4,52.0611,42.3385,-9.7225
Os2PtPb,57.3561,53.0094,-4.3467
YTlHg,30.1795,30.9466,0.7671
AsRu2Pb,26.4186,27.3574,0.9388
Ti3RuW,22.9629,21.378,-1.5849
K2ZrRe,41.8393,37.0913,-4.748
PmYAlCd,30.0055,26.9928,-3.0126
BeP2IrAu,26.053,23.4753,-2.5778
Hf(MnNb)2,125.2638,99.894,-25.3698
NbAlB,40.7603,28.2471,-12.5132
Y2TlHg,38.1154,32.7181,-5.3973
Mn2Pd2Rh,56.5854,47.397,-9.1884
Ga2ReNi,29.7043,23.0256,-6.6787
CaMnI,33.9445,28.9477,-4.9968
SrPbBr3,26.8067,23.7113,-3.0954
Cs2AsIr,21.6332,25.8907,4.2575
Ni2Pt3Rh2,48.1554,33.8861,-14.2693
K(SnSe)2,26.0348,22.7096,-3.3252
In(GaNi2)6,7.518,8.7868,1.2689
Th2PaMn2,71.1398,67.3006,-3.8393
MoW2,31.0424,37.3607,6.3183
Ac2Dy7Er3,34.174,36.4645,2.2906
BaMo,0.0,4.7862,4.7862
Zn2TcMo,31.1674,29.8691,-1.2983
YTl2Hg,34.967,35.7435,0.7765
NdBeNi,10.1117,13.1568,3.0451
Pm3YCd4,20.2955,22.3678,2.0723
Na3La(PmSe3)2,36.9868,30.3248,-6.6619
ZnTcMo,38.7069,37.7511,-0.9558
Ni3AgBr,13.634,13.2233,-0.4107
Y2TlHg3,21.872,19.0965,-2.7755
ScAgBr2,16.559,14.6034,-1.9557
LiLa2ZnO5,31.3647,26.468,-4.8967
TlReAu,47.163,49.7384,2.5754
NiAg2Br,20.4593,18.4747,-1.9846
Sc2AgBr,13.9844,12.6725,-1.3119
Y3SiI,27.7936,25.4337,-2.3599
GdPuNi2,30.834,31.2994,0.4653
TaCu4,14.3088,15.8612,1.5525
SmDy2Hg,19.6383,22.4176,2.7793
MnBeBiP,29.1809,27.5043,-1.6766
In2IrOs,31.7281,34.7702,3.042
SrRuC2,33.3454,27.0585,-6.2869
Cd2InW,24.7252,26.6669,1.9417
Ni2AgBr,14.3823,14.0144,-0.3679
RbZn2Os,15.8611,16.7124,0.8513
InIrOs2,37.1536,41.1581,4.0044
CdInW,11.2881,20.6351,9.347
Hf5Cd3,97.0096,71.2993,-25.7102
Mn2AlGe2,45.8484,37.4811,-8.3673
In3IrOs,30.0771,31.7059,1.6288
Pr12Ag6Ir,9.042,8.2783,-0.7636
In2IrOs,31.645,34.7702,3.1251
CdInW,10.2342,20.6351,10.4008
Cd5Pb3,31.7446,32.6752,0.9306
LiY4Hg,21.9572,18.2332,-3.724
In2IrOs,31.6315,34.7702,3.1386
AcNdEu2,36.4944,38.41,1.9156
Ca2AlCo,17.4536,12.6584,-4.7952
Be3TcI,32.6955,30.195,-2.5005
Ac2NdEu,45.5023,48.3934,2.8911
LiOs2AuSe,37.4471,36.4865,-0.9606
LiLuAu,26.6038,28.5433,1.9394
NaPd5Pb4,32.2315,32.8822,0.6507
LiOsAu2,34.5767,36.8368,2.2601
NaLaTePt2,59.8852,42.5101,-17.3751
YNb2CrHg,79.8688,63.1627,-16.7061
Ca2AcPrHg4,8.4121,9.1939,0.7818
Li3OsAu,19.1033,19.6608,0.5575
Rb2NdCuI6,13.0085,14.6874,1.6789
Rb2PmCuI6,13.0245,14.7867,1.7623
Al5Re3,16.7628,19.1082,2.3454
ReSbOs2,42.5174,44.0889,1.5714
TaSbS4,50.8537,38.4826,-12.3712
Rb2CuPtI6,20.4427,18.0193,-2.4234
FePCSe,38.2584,29.4768,-8.7817
Cd5In3,19.4522,20.4998,1.0476
Ba6La,8.3433,6.2188,-2.1245
Dy6Y2Hg,29.5417,28.788,-0.7537
MoW3,33.072,38.9331,5.8611
Li2CrAu,14.5398,14.6451,0.1053
YAl2GaHg,18.0641,14.863,-3.2012
LiCoPbAu2,33.2641,32.4858,-0.7783
Ba4RhSeI2,16.6301,14.4561,-2.174
MnAl3Ge,32.4123,26.4507,-5.9617
Li2CoMoAu,16.3776,16.1222,-0.2554
YSi2Hg,25.7196,21.6173,-4.1023
KMn2Al,54.1923,44.6097,-9.5827
BaAlGe,5.2297,7.3407,2.111
YSiHg2,22.0409,18.8232,-3.2176
InPBr2,8.1966,9.4801,1.2835
AlCrAs2,21.729,17.1548,-4.5743
Rb2SrCo,5.5581,5.4568,-0.1013
Be2AlTc,31.7052,28.1104,-3.5949
Y5Hg3,31.3445,23.7133,-7.6311
Li2CrAuI,16.7967,16.3763,-0.4204
Ce3Bi5,42.9453,44.2179,1.2726
FeSb,24.5877,27.6008,3.013
SrTlCr,14.7622,16.4359,1.6738
CaPm(SmBi2)2,36.4408,38.7444,2.3036
Pr2NbIr,44.4706,40.524,-3.9466
Sr2CrGaTe,18.6179,17.0778,-1.5401
Ce3Pa5,51.451,56.1073,4.6563
ZnRu2Pt,32.5238,27.8956,-4.6281
Ta2BeTl,34.8151,35.8723,1.0572
Mg(CuH4)3,4.0076,3.1505,-0.8571
YTmNiHg,48.8038,44.6496,-4.1543
TaBeTl2,38.542,38.9161,0.3742
YGaHg,15.4711,14.219,-1.2521
K3Bi5Br12,13.3597,13.8866,0.5269
TaBeTl2,38.4548,38.9161,0.4613
Ba2PaCuSe6,35.3452,29.8015,-5.5436
Li5Pb4Au,25.6879,26.9748,1.287
LiEuAu,24.9062,26.4427,1.5364
Na4CdI2,22.9556,20.1542,-2.8014
CuPd2PtSe6,37.5505,29.4064,-8.1442
Be3ZnGe,8.9129,7.1482,-1.7647
Be2ZnP,9.7912,7.3311,-2.46
K(Tl3I4)2,32.7343,33.049,0.3147
BeV3Ga,79.3442,62.615,-16.7291
Cd11Pt4Au9,41.2738,36.7509,-4.5229
Ir3PdPb,42.5735,44.0292,1.4557
CeNiPt4,59.5168,41.3161,-18.2007
Li2CeHgAu2,21.0623,21.9167,0.8544
SrAl2Br,6.3738,7.6805,1.3066
SnRh3Br,37.0609,28.0236,-9.0373
RbZn2Bi,18.0491,18.6668,0.6177
PuTh7S8,59.9706,53.8082,-6.1624
K3Nd5I12,10.7906,11.9576,1.1669
Ca3Tb(DyRh3)2,31.9374,25.9664,-5.971
Cr4AsAu,16.6358,16.7929,0.1571
RbErTl2,33.2227,34.1477,0.925
Li5SbAu4,23.1392,23.1834,0.0442
CaTmGa2Pd5,17.2111,17.8856,0.6745
Tl(GeAu3)2,36.1128,38.7684,2.6556
Ca2Cd3PtAu12,40.1485,39.4865,-0.6619
Ca2Be3CdAu12,36.7434,35.5871,-1.1563
Li2OsAu,22.7217,24.4653,1.7435
Pr3Sm6Tm,12.2044,15.3293,3.1249
Ca3PbSe4,62.3097,53.3582,-8.9515
ZrTl2I,56.254,51.2453,-5.0087
Li2TaAu,21.4937,23.6068,2.1131
Be(AlTc)2,41.6512,34.9816,-6.6696
Li3AuI,14.1256,14.4735,0.3479
BeAlTc,47.1491,39.8622,-7.287
HfGeRh2,53.9256,38.5323,-15.3933
Ba2ZrSn,30.0081,26.0616,-3.9465
YInHg6,8.5182,7.5149,-1.0034
Li2RuAu,16.2163,18.0158,1.7995
Pr6Sb3Te,8.6284,8.079,-0.5494
LiMn2Au,56.703,48.4749,-8.2282
LiTiHgAu,21.4262,18.1607,-3.2655
Be3AgRh,18.5747,13.7185,-4.8562
LiNbPAu2,52.8094,45.3916,-7.4178
Ce11Hg9Pt4,25.6205,21.4095,-4.211
YRe2Hg,27.0702,28.6202,1.55
RbAs2Ru,34.6875,29.9741,-4.7134
As3RuW,27.4629,23.033,-4.4299
Ga2Ni3Au2,20.7131,20.3103,-0.4029
Li6SbAu,11.4286,10.9293,-0.4993
NaCeAu2,35.57,36.0934,0.5234
Ta2Cu,19.1552,29.3737,10.2185
Nd3Fe2Co7,21.4561,17.71,-3.7461
ThSnO4,36.2503,33.9784,-2.2719
AsRu2W,40.6973,33.0907,-7.6066
YZr4Hg,74.1487,58.2556,-15.893
ThSnO,51.9658,47.2286,-4.7372
SnSb2Ir,33.4782,32.2873,-1.1909
Rb3Tm2SnSe6,30.0443,25.7379,-4.3064
PrAl5Os2,12.4186,14.0677,1.6491
BeAlTc2,58.4941,48.9284,-9.5658
MnSbW2,47.371,45.4109,-1.9601
Be2AgPb,22.9884,21.5973,-1.3911
Li2OsPb,24.168,26.0427,1.8747
ZrSbBr2,48.7891,41.8709,-6.9182
LiScPbAu,26.1799,28.1724,1.9925
ZrSb2Br,57.436,48.5173,-8.9188
Np2Sn2HPt2,51.4576,45.1584,-6.2992
BeAlTc2,58.468,48.9284,-9.5397
Li2TiAu,15.5702,12.6673,-2.9029
Li5PbAu4,23.9415,25.0162,1.0748
Rb2Sn2Ru,27.2675,24.3114,-2.956
LiLa3Ru,35.1577,24.7348,-10.4229
Be2AgPb,22.7529,21.5973,-1.1556
SrB3F,8.5707,8.656,0.0853
Hf2Ni3Pt2,68.7691,49.7471,-19.0219
CaDy2Rh3,14.9613,12.8578,-2.1035
YZr2Hg,61.7232,49.1263,-12.5969
CaSm(ZrAs2)2,25.5436,22.7827,-2.7608
GdAsRh,0.0,1.5052,1.5052
Li2AcCdIn4,21.446,21.6867,0.2407
Ca3Cd2InAu3,23.284,24.5383,1.2543
Be2AgPb,22.7395,21.5973,-1.1422
Cd(SbRu)2,22.8292,21.5383,-1.2909
RbZn4Cd,8.7809,8.9924,0.2115
Li2ZrNbAu,58.1178,48.8835,-9.2344
Li(NbAu)2,70.0353,61.6903,-8.345
Pr3Se5S12,31.6319,19.6745,-11.9574
Y4Hg2N,38.7732,30.8745,-7.8987
TaBiTePb2,48.9348,49.1939,0.2591
La2Pr2Ni3,24.3538,15.9883,-8.3655
NiAgTe2,26.6724,25.967,-0.7054
Y(ThSc)4,33.2018,36.5735,3.3717
LiIr2Au,33.706,37.0957,3.3897
YbBiO3,0.0,3.3346,3.3346
LiMn2Au,61.8367,48.4749,-13.3618
NbB4W3,32.2546,32.091,-0.1636
LiCeEuAu,24.9887,27.228,2.2393
LiLuRhAu,31.9627,30.5719,-1.3907
YSi2Hg,26.0256,21.6173,-4.4083
LiRhAu2Br,39.3914,34.914,-4.4775
Li3MoAu,13.4869,14.2903,0.8034
Sr2TiC,25.5352,21.0837,-4.4515
LiRuAu2,27.926,29.647,1.721
Sc2Bi4W,38.6968,40.4439,1.7472
Cr2RhN,33.8714,27.2545,-6.6169
Re2Ni3Rh2,50.1534,35.8788,-14.2746
K2CuTc,31.7442,28.0587,-3.6855
LiEuAu2,30.2505,31.618,1.3675
Li2ZrFeAu,43.404,36.1913,-7.2127
Ac2NdLu,46.9256,50.1345,3.2089
FeNi3I,27.387,21.6465,-5.7405
InCu2Tc,31.8234,29.8935,-1.9299
CaTlCrSe2,49.8407,41.019,-8.8217
Sr3BPd,12.354,13.4585,1.1045
BeBiPb3,43.6705,44.1168,0.4463
InCuTc2,53.1516,48.247,-4.9045
AcNdLu2,39.1317,41.5991,2.4674
Zn2FeTc,31.1277,25.4307,-5.6971
LiCu2Au,11.9778,14.3728,2.395
Cs2SnSb2,28.6063,25.6904,-2.9159
YCuHg,23.78,20.0931,-3.6868
Li2TeAu2,23.9445,24.6722,0.7278
CsSnSb,26.2815,24.944,-1.3375
Fe3Cu2Pd7,24.093,22.3386,-1.7543
Li2AlIr,14.6069,15.0873,0.4804
CaTbGdHo,22.4623,25.1901,2.7278
BeRh3Pb,41.689,32.8259,-8.863
HfCoBi2,59.3571,53.0763,-6.2809
Nb2CuBi,80.1922,74.881,-5.3112
HoPa2Nb,76.4143,73.859,-2.5554
Zn2FeTc,31.1404,25.4307,-5.7097
Te2PbAu,46.1409,45.6434,-0.4975
CaPrGa2,5.8888,6.6505,0.7617
Na4CdSb,24.9416,21.129,-3.8126
AsAuC,35.3933,31.3427,-4.0506
Sm3Fe7Co2,15.3512,14.4119,-0.9393
Re5Os3,40.5516,46.0227,5.4711
NaCdSb2,33.301,27.2688,-6.0322
Ba2PbC,24.9981,23.2738,-1.7242
Th11Co4Hg9,30.8911,32.4165,1.5254
NaCd3Sb2,26.3961,23.149,-3.2471
Y2NbHgSb,58.4806,46.0,-12.4806
AgSb,34.8446,28.9556,-5.889
Te2RuN,45.2017,41.4485,-3.7532
RbSnSeBr2,17.9248,16.0324,-1.8924
LiPC,17.679,11.6856,-5.9934
La2VRu2,45.4081,34.3629,-11.0452
Rb2CuW2,18.6329,17.8056,-0.8272
Zn2FeTe,18.5155,15.2564,-3.2591
GaAs2CBr,21.0095,17.493,-3.5165
SrY2Hg9,9.0238,7.374,-1.6498
GaFeC2Br,34.8052,24.5201,-10.2851
K3La,22.2219,16.9218,-5.3