Formula,E_hull_DFT (eV/atom),E_hull_ML (eV/atom),Delta (ML - DFT)
In3Se,26.7911,25.3135,-1.4777
Zr3Mn4,98.9819,79.0688,-19.9131
CaIn2Se,40.4115,35.1387,-5.2728
ZrPaO4,15.2038,17.7334,2.5296
Ca2InSe,39.4933,30.2177,-9.2756
Ca2MgSn,7.9144,9.7261,1.8118
ReGe2Ir,33.0648,31.7557,-1.3091
TaCu(PbO3)2,15.9395,16.3185,0.379
Y4ErSe5,30.8346,27.2456,-3.589
Ca(SbPt)2,50.4612,35.9793,-14.4819
Ga2Si2Ru,10.035,7.4092,-2.6258
NiP2RhS,27.9314,25.4439,-2.4875
Rb2GaPt2,37.9217,27.4626,-10.4591
LaYNiOs,64.801,56.398,-8.403
TaNi2H3,-0.0,-0.0,0.0
ThMnCl,48.5701,44.7543,-3.8158
Zr3P2,51.4552,44.9198,-6.5354
Rb3HoAl3B12S12Cl,16.4647,11.4799,-4.9848
Rb3TmAl3B12S12I,17.4682,12.18,-5.2882
K3ScGa3B12S12Cl,21.1918,14.3798,-6.812
NaZn,14.3853,12.3158,-2.0695
Pr32In3Rh19,14.9552,9.8862,-5.069
CaYbIn,12.2159,16.353,4.1371
KOs2Ru,28.9031,31.8561,2.9529
Th4ZrNi10(B2C)5,31.0816,28.1494,-2.9321
LiCo2W,14.5228,16.4929,1.9702
TaBeTe2,33.7154,32.9731,-0.7423
BaCrTc,40.4245,33.4563,-6.9682
Mn3Tl,80.5919,64.0869,-16.5049
Cs(GaGe)3,7.4629,8.8697,1.4068
AcUTe3,32.6612,36.1145,3.4534
Ti2Sn2Bi,29.631,23.4371,-6.1939
Ca2ScRe,35.9371,28.7088,-7.2283
Cs3NaNi,21.5028,20.649,-0.8538
CsNa2Ni,20.5276,18.5508,-1.9768
Ta2CdTe,34.1265,36.0286,1.9021
V6NiAs2,92.7542,72.3484,-20.4057
MnGeCl2,24.5143,20.7187,-3.7956
PaGaFe,22.2648,24.5873,2.3225
K2CaRh,19.6589,16.4489,-3.21
SrTmAg2,26.4051,23.857,-2.5481
ScRe6,48.7613,46.2454,-2.516
CaScRe2,44.8574,37.8389,-7.0184
MnAu4Cl,48.9937,46.0213,-2.9724
CeHfNi4,39.1923,30.3949,-8.7974
Al2Mo2Rh,17.5101,13.9424,-3.5678
KAg2Br,21.2094,17.5189,-3.6905
AlInSe3,12.3364,25.5657,13.2294
Rb3HfBe,31.6016,21.975,-9.6266
Rb2SbAuCl6,10.9833,10.4011,-0.5822
NaLiYAu,21.3275,21.4479,0.1203
AlIrRh2,35.7563,30.9228,-4.8336
Rb2TcICl6,13.4255,12.1207,-1.3047
Rb2TcAgCl6,10.5121,8.9527,-1.5595
KCrAuS2,30.7711,25.5652,-5.2059
LiAcSmBi,35.8441,38.3601,2.516
Ca2Ag2Sb,24.4331,18.9759,-5.4572
MnAlSe2,49.3616,39.2991,-10.0624
Li2HfCu,38.2294,28.8251,-9.4043
Ti(NiRh)2,19.0252,15.0223,-4.0029
AlSeBr,20.348,19.5782,-0.7698
ErBPd,9.2034,14.7323,5.529
Ga2Te2Br,22.2719,21.9843,-0.2876
MnAlSe2,49.4566,39.2991,-10.1575
Cu3(PbSe)2,31.6477,30.0775,-1.5703
YTmBr6,12.4182,13.414,0.9957
La7Ce,48.3638,34.083,-14.2808
Mn2Al2Se5,48.9041,39.1281,-9.776
Na2La2Al,31.224,23.287,-7.937
CsOs2Ru,26.7598,30.2172,3.4574
Dy,23.7012,30.0496,6.3484
Sr(ZnCd)2,14.1155,13.62,-0.4955
Ce2ThGa2,20.7348,24.6726,3.9378
MnGeP,24.6363,20.2815,-4.3548
La7Tb,43.6472,29.619,-14.0283
TlNi2C,26.1712,23.9019,-2.2693
Be2TeI,26.7711,26.9492,0.1781
HfTiCu2,33.8894,26.3377,-7.5517
KSnBi,28.9648,29.5828,0.618
AgTeBr2,24.0515,22.4005,-1.651
Y2TmHg,32.7717,27.1779,-5.5938
Ca2Tb2Ag3,22.2971,19.7919,-2.5053
Sc3Si3Mo2,28.3138,24.4115,-3.9023
Y2TmGa,17.0247,18.5785,1.5539
Si2IrRu,26.181,22.1874,-3.9936
Be2AlTe,24.5244,19.359,-5.1653
LaNpPb6,54.4718,53.4187,-1.0531
LiCaYIn,15.6888,12.9081,-2.7807
Cs(ThAu)2,45.6449,49.5203,3.8754
CaPrYIn,13.5839,12.0847,-1.4991
ZrP3,27.0277,24.614,-2.4137
La17Ce,50.2029,34.3122,-15.8907
ScBeGa2,8.0579,8.5058,0.4478
LaTbAu6,44.58,43.9946,-0.5855
La2BiPb5,47.6428,45.0777,-2.5651
Pu(MgH2)3,11.3545,11.2675,-0.087
Ac2NdEr,46.0177,48.6653,2.6476
Li3IBr2,18.9612,17.76,-1.2012
BaScIn3,16.9545,14.5666,-2.3879
Er2HfTl,63.2958,54.0911,-9.2046
CaYPtPb,44.5291,36.1525,-8.3765
Tc2AuSe,70.7257,60.4955,-10.2302
NaY2NiPd,63.4667,53.4542,-10.0125
CaYInPb,27.3625,25.9081,-1.4545
TcAuSe2,59.2678,51.1434,-8.1244
FeCuC2,44.8685,32.7574,-12.1111
BeNiS2,30.3289,23.472,-6.8569
Rb2PdI,8.3543,9.5232,1.1689
Ac3La(ThBi3)2,57.8832,57.9811,0.0979
Ca2IrW,31.0154,27.5494,-3.466
RbAs,0.0,0.0,0.0
TcPt2Au,79.8501,63.72,-16.1301
Pr4YEr,6.6395,7.1978,0.5584
AcLa(HgPb)2,32.9169,32.4439,-0.473
TiCo7,14.2599,14.3469,0.087
Sb2Rh2Se,41.9973,31.9394,-10.0579
CaCr2In,15.5952,13.4034,-2.1917
La7Ce,48.3588,34.083,-14.2758
Zn2Cd2Au7,34.8642,35.7513,0.8871
FeSiSI2,25.2292,20.0127,-5.2165
GaW2I,28.136,30.8922,2.7562
Tl2Cd3In2,28.4364,29.2604,0.824
Ca2Tb2Tl3,30.5259,32.2245,1.6987
Hf2TlSn2,69.7469,54.8877,-14.8593
Cs5Au2BrF,22.5099,23.271,0.7612
ScCdPb2,32.1781,33.7451,1.567
Ni2P2Ru,7.5354,8.8912,1.3558
Cd3(InSn)2,19.8572,20.8005,0.9433
Sc(CuS)3,30.9237,21.6297,-9.294
ScNiSN2,28.4786,24.068,-4.4106
ScFeCl2,18.8724,17.3856,-1.4868
Tb2Pm(Y2Er)3,20.7856,22.3895,1.6039
Na2HfTa,58.8046,46.4273,-12.3773
KVZnPb2,50.9387,45.3594,-5.5793
Pr(Y2Er3)2,21.2105,23.0739,1.8634
Zn5Rh4,25.7529,20.644,-5.109
Na2GaBi2,30.4194,29.8722,-0.5472
Ca2Nd2Zn3,13.2868,13.1507,-0.1361
GdLuPd2,23.714,26.3686,2.6546
Na2PmCdSb2,26.6486,22.8457,-3.803
Tb3Tl3Hg2,28.6168,30.1444,1.5276
NiPd3Ru,16.7071,17.9746,1.2675
Na2CdCuAs2,12.4799,12.6999,0.2199
Li2ReSi,19.3361,19.0184,-0.3177
LaNiPb,25.8684,25.2902,-0.5782
Th4FePb2,53.9324,55.2828,1.3504
Pr2Nd3Ho4,15.2321,18.5834,3.3513
TbThO4,12.8136,15.6753,2.8618
YTh2MoC4,48.1072,38.544,-9.5632
La2TlGaO6,26.7282,25.9038,-0.8244
NaCd2TcBr,34.41,29.7105,-4.6995
Pr12Sm5Er2,6.8128,8.1861,1.3733
Ca3(SmPd)2,13.9399,15.943,2.0031
NaMgTl4,38.4648,38.2504,-0.2144
BeTe2Pb,34.6869,33.9455,-0.7414
Np4SeS5,59.9599,52.2856,-7.6743
Ba8La(BN2)6,1.4118,1.914,0.5022
CsNa3Ni,21.2394,18.146,-3.0934
YTcI2N,60.432,50.1696,-10.2624
Sb3OsPb,46.3646,40.7257,-5.6389
Sc2SnGe2,23.6215,17.1247,-6.4968
InAsOsPb2,36.8294,37.5218,0.6924
AgP2PbO6,8.7712,7.6298,-1.1413
BaScFe2,28.7956,25.4693,-3.3262
LaFeTc,48.8059,39.3758,-9.4301
Yb3PI3,25.06,24.9326,-0.1274
Rb2PdI7,17.621,17.8008,0.1798
Sb2TePb2,43.882,40.5913,-3.2907
CoSb2TePb,40.108,34.0747,-6.0334
RbPdI2,12.9102,14.4936,1.5834
NaCaSb,26.3278,20.6246,-5.7032
LiPaOs4,39.1522,42.9142,3.7621
TbAg(PO3)2,5.1245,3.4158,-1.7088
Al2TlMo2,19.5215,18.6376,-0.8839
PuAg(PO3)2,8.9594,6.9256,-2.0338
RbSrTa2Os,35.4484,31.6752,-3.7732
Cd2OsAu,32.2249,34.1902,1.9653
Tb3Sm3Tl2,31.8666,33.5302,1.6637
Te3PtAu,48.4765,44.0621,-4.4145
CdTeI3,26.1199,25.7689,-0.3509
Cd2ReAu,61.1266,50.7972,-10.3295
TmAg(PO3)2,5.5399,3.8023,-1.7376
TePbBr,45.0232,39.915,-5.1082
CaMg2CuH8,5.4726,5.0995,-0.3732
CoPbBr2,30.0933,24.7418,-5.3515
NpAsPdS,30.4079,29.7192,-0.6887
CaO,0.0,0.0,0.0
ScGe2Rh,10.9382,6.3768,-4.5614
Y5(ScH4)3,0.0,0.0,0.0
TbBiTe3,36.3254,38.2383,1.9129
NpU2(PdS3)2,52.0874,44.2778,-7.8096
K(Ag2S)6,38.265,27.3937,-10.8713
La2NpHg6,18.8025,15.7096,-3.093
Sc12Sb6C,22.1794,17.1449,-5.0345
Nd6Dy6Ho,26.466,27.6902,1.2241
K3SmCl6,2.5274,4.3419,1.8145
K3SeCl6,6.7356,6.4795,-0.2561
LaCe3(ThBi3)2,48.0784,48.5601,0.4817
La2RuAuSe,42.4655,34.5527,-7.9129
Sc(Ga3S4)2,36.0964,27.8276,-8.2688
AlAgAs,12.8754,8.854,-4.0214
RbOsI2,23.2561,23.777,0.5209
Hf2Sc2Hg,53.1984,38.7297,-14.4687
PmMg2ZnH8,4.9907,5.3869,0.3962
Th2ZrGe2,41.8589,42.6221,0.7632
La5CePm6,36.0187,29.7313,-6.2874
Pr3Y2Er3,13.9426,14.4829,0.5403
La2PbBr,44.397,33.7571,-10.6399
Th(ZrGe)2,55.7101,51.3836,-4.3265
Si(GeIr)2,17.5985,19.9565,2.3579
TiSeI2,20.1884,21.1821,0.9937
CeYTcPt,89.612,73.2046,-16.4074
Hf2SbBrCl,76.5291,56.6546,-19.8745
Cs4NaBr2,19.9257,19.3852,-0.5406
LaPbSe4,49.298,40.7605,-8.5375
Lu2In3Ir2,29.9276,32.5114,2.5838
Sc2NiI,11.5587,12.4963,0.9375
CuBiAu4,41.8474,43.0896,1.2422
Cs7Au3F,26.3221,27.3104,0.9883
LaSc2In,21.4998,18.5361,-2.9637
PrY2ErSe4,29.2641,26.0325,-3.2316
NdYAlTl,37.8946,34.5724,-3.3222
RbGaBr6,9.3531,9.5291,0.1759
Y(InSn)2,23.3,20.8899,-2.4101
NpTiS4,49.1744,40.7262,-8.4482
InOsBr2,22.2643,22.8671,0.6028
TaTi2Sb,15.7897,19.1789,3.3893
KTaAg,27.4932,26.129,-1.3642
Pr2Co2Ge3,0.3598,1.224,0.8642
Ga(SiRu)2,18.9048,14.3026,-4.6022
Ta2Be2Pb,23.2516,25.7481,2.4965
Np(GeS3)2,41.4544,31.849,-9.6054
PuNp3S4,62.2478,54.6715,-7.5764
Na(FeC)2,30.283,22.4334,-7.8496
CoS4O,34.6361,26.8003,-7.8358
Ce4Si3Ir,22.7653,22.1944,-0.5709
BeHgBr2,5.5112,6.5192,1.008
ScCoCuTc,80.9683,65.2482,-15.72
Cs2InAuF6,14.9274,16.2594,1.332
LaScIn3,26.2692,20.949,-5.3202
Li2LaFe,30.4577,23.112,-7.3457
NaLaIn2,28.7023,24.21,-4.4924
CaGaGe,3.3737,6.382,3.0083
LiEu2WO6,16.05,17.3786,1.3286
NaFe3C,23.9203,18.8451,-5.0753
FePHPtSe,41.1071,32.3421,-8.7649
La2ScIn,33.2011,25.2273,-7.9738
NaBeCd3,18.132,16.5485,-1.5834
Na3TaCd,27.2843,24.3665,-2.9178
NpGa2Co2C,28.156,25.5391,-2.6169
NaSr4O,3.3071,3.5754,0.2683
KZnIr2,31.1965,28.8548,-2.3417
Ti3GeIr,15.5882,16.673,1.0849
Pu2GeI2,39.1269,40.6303,1.5033
EuSnRh,32.1407,28.8165,-3.3241
ScBeW2,27.0045,26.3779,-0.6266
Ti6Ge4Ir,10.7825,12.5001,1.7177
YPd3,24.6619,23.0974,-1.5645
Pr3Y2Tl3,16.9099,18.9918,2.082
Sc(BeW)2,16.1163,17.6719,1.5556
Rb4TeO,5.1317,5.0646,-0.0671
BaNi2Te,15.2951,12.5598,-2.7354
Li2PAu2,20.6394,19.5853,-1.0541
KNpAgS3,40.2943,34.2057,-6.0886
NaYInPd2,25.8887,22.7568,-3.1319
Y(GeRh)2,27.0598,21.3108,-5.749
Sc(BeMo)2,10.4657,11.4302,0.9644
PuInNiPt,47.5479,41.7242,-5.8237
Y(SbAs)2,24.6465,21.9109,-2.7356
Ac2Pr3Co2,18.1132,20.289,2.1758
SmY4TmS8,38.4629,30.7099,-7.753
La2SmGe2,23.0842,19.3179,-3.7663
NaLiTl3Pb,35.7936,36.4428,0.6492
BaCaPb,19.2406,20.8708,1.6302
Na2CaIn9,19.3073,19.1705,-0.1368
BaCaOs2,23.3436,25.6071,2.2634
CdIrI3,27.4414,27.7658,0.3244
La3(PmY4)2,24.2891,21.6066,-2.6825
Pr2Y3Pt2,30.2622,23.1207,-7.1415
TmAgSb2,37.5119,28.2692,-9.2427
SrGeTe2,26.2335,26.6371,0.4036
La15Pm,49.9961,33.6736,-16.3225
SrTc2Te,60.9934,52.4544,-8.5391
Np2S5,36.2158,28.2615,-7.9544
LaPr2Bi3,27.9815,28.4251,0.4436
BaScBe2,7.2384,5.5998,-1.6387
La3NdTl4,47.4535,42.0513,-5.4022
Y2Ga3SiPt4,47.8817,35.6652,-12.2165
Ce2PaGe2,26.8263,29.313,2.4867
Ni(SbAu)2,38.2026,33.6415,-4.5611
TlSb2Ru,34.7669,32.3542,-2.4127
YBiCl6,27.9718,27.4036,-0.5683
Zr(SbPd2)2,37.8047,32.5116,-5.2932
CeMgZnBi,22.8505,23.9811,1.1306
Tl(Cu3S2)2,28.7793,24.3322,-4.4471
Tb2DyB6,8.855,11.8757,3.0207
Li2Sc2Sn,8.7821,7.1564,-1.6257
Ba2LiSn,4.3005,6.354,2.0536
Ce2Nd2Co3,16.6429,19.0812,2.4382
YReRu,20.0246,20.6325,0.6079
Y3CuSi2Pt9,69.6113,49.1456,-20.4657
InRuBr2,19.5959,17.9121,-1.6838
BaYIO6,21.6026,18.6214,-2.9812
Mn2AgRh,69.986,52.8618,-17.1242
GdPb3,46.6096,48.8029,2.1933
CaTa2W,29.6972,34.0584,4.3612
Ta2Co3Au2,51.2614,41.1836,-10.0777
PrTm12Sc7,20.2335,21.5953,1.3619
RbZrTl,46.5069,43.4212,-3.0857
Tl2AgSb2,41.9047,37.1839,-4.7208
Cs2TaAuF6,21.8878,20.5432,-1.3447
Pr3GeO6,5.4453,4.0335,-1.4118
YSi2Pd2Pt,37.9585,29.7643,-8.1942
LuBi2Pb,48.5824,50.4365,1.8541
Rb2ZrI,29.0487,25.1763,-3.8724
Rb(ZrI)2,45.1187,38.8016,-6.3171
MgPa(CuH4)2,12.3219,12.2579,-0.064
Sm2ScCu,31.1169,28.2983,-2.8185
NbTe2Au,63.6169,57.9438,-5.6731
ScCuSn,36.526,31.8954,-4.6306
LaMg(AlH3)2,9.8744,7.5888,-2.2856
Ba2MgBiO5,-0.0,2.5743,2.5743
PrY7Tm12,23.4019,24.5929,1.191
TaSb2,42.5677,38.3985,-4.1692
Sm4Cu2Sn,31.9388,31.6385,-0.3003
NaCaNb,47.937,41.8055,-6.1315
Ba2CeMgO5,0.0,0.0,0.0
ZnRh,18.8993,18.6024,-0.2969
Ca2TaSb,20.4988,19.9831,-0.5157
LaTb6Pr5,15.6068,15.5825,-0.0243
Sm2Cu2Sn,29.7713,29.3973,-0.3739
AlB2I,6.4648,7.1405,0.6757
Ba2PmMgO5,0.0,0.0,0.0
Ca2MgGeO5,13.7506,14.375,0.6245
K(TlCl2)2,17.6331,18.2246,0.5914
Ni2GeF,13.4174,13.8166,0.3992
Y2SiPt,47.2874,38.7527,-8.5347
La(PrGe)2,5.9392,6.2409,0.3018
K2Ag3Cl5,9.9219,8.4957,-1.4262
ZnInTc,40.3678,36.0584,-4.3094
NaLi2NdP2,15.7844,12.2274,-3.557
La(PuGe)2,33.4551,33.099,-0.3562
AgMoBr2,14.2778,13.9549,-0.3229
Zr(TaNb2)2,105.6808,90.5684,-15.1125
LiCuBr2,19.3949,17.5487,-1.8462
ZnIn2Tc,35.265,32.0386,-3.2264
AcGdTm,41.5636,44.4347,2.8711
NbPtI3,60.8347,49.4745,-11.3601
PrYInSn,22.5565,19.0608,-3.4957
Nd(NbGe)2,64.6627,56.2315,-8.4312
LiPrIr,7.2566,11.3883,4.1317
Ti3MoOs,7.296,10.7864,3.4904
Sr2AsP,18.0777,17.2656,-0.8122
CaTaSb2,34.5037,29.9826,-4.5211
Cs2NaAuF,24.8571,24.1387,-0.7184
Cs2LaPbS4,41.7716,33.4709,-8.3007
Hf(ZrGe)2,62.9277,50.783,-12.1447
CaTaSb,30.9266,27.8811,-3.0455
Pa3(ZnTc2)2,65.1979,59.5027,-5.6952
TlTe2Ir,45.4366,45.544,0.1074
La2Tm3Co2,29.5284,26.9009,-2.6274
PrSe3,28.7453,23.6116,-5.1337
K2Cd15Pb2,21.8945,22.4083,0.5138
ErRh2Pb,44.5406,39.0176,-5.523
Si2GeAu2,22.9792,21.7865,-1.1927
K3PO4,0.0,0.0,0.0
Ac2Nd3Co2,30.7173,32.9214,2.2041
Ca3TaSb,21.2147,18.9932,-2.2215
Ti3NbPd,26.6714,26.4167,-0.2547
Cu(GeIr)2,16.0988,20.2638,4.165
PmYMgTc,68.3879,58.7748,-9.613
Y2MnTlIr,44.9663,41.489,-3.4773
TaBe2Mo,19.5904,19.5905,0.0001
NaSr(CdIn)2,20.7964,19.1655,-1.6309
Cs2TeAuF6,22.6955,21.5186,-1.1769
Sm3(ThCo)2,31.2127,34.0905,2.8779
CuGeIr2,25.7504,28.7721,3.0218
Zn4AsIr,16.7921,15.9311,-0.861
TbY7Tm2,18.7025,20.859,2.1565
Sb3AsIr,38.2247,32.3781,-5.8465
Na2PuGaSb2,31.1189,27.4405,-3.6784
TaSb3,43.3822,37.1564,-6.2258
NaNbCd,51.4004,45.6992,-5.7012
CuSbAu,29.1289,27.9855,-1.1434
CeSm2Pd,22.8625,25.8485,2.986
TmGa2,11.2736,14.864,3.5905
PrN2,0.0,0.0,0.0
Ce2ScGa,15.9934,18.8454,2.852
CeScSn,21.0681,19.3846,-1.6835
K(GaTc)2,37.782,33.9504,-3.8316
Cs(LiSb)2,19.6679,17.4553,-2.2125
Ce2ScGa,15.6511,18.8454,3.1943
Ce5Ga4Ag,18.5411,19.9215,1.3804
Ca2NdLu,17.3253,19.6231,2.2977
Y9Mn9P4,49.3021,36.6001,-12.7019
Ce2GaAg2,19.5482,19.0838,-0.4644
NbCuB2,48.1249,34.0023,-14.1226
Zr2Mn2Sb,79.8184,63.2734,-16.545
K2FeIr,17.9104,18.5099,0.5995
Mn(Ru2C)2,44.6217,37.7338,-6.8879
TcPdI2,35.6343,33.0426,-2.5917
Pr6PtRh3,13.9992,9.0709,-4.9283
ZrSnRu2,30.6443,31.6297,0.9855
Ni2Ru2Au,12.487,17.6601,5.1731
ZrNbTeBr2,61.3668,51.6804,-9.6864
Pr8BiIr2,9.0183,10.7626,1.7443
Cr2Ir3Os2,34.3994,36.105,1.7056
Tb(NdGe)2,12.6563,16.5782,3.9219
Tc,65.9974,59.6172,-6.3803
InPtBr,41.2409,32.5593,-8.6817
Ca2FeTc,41.9777,34.6105,-7.3672
Ba2NaAuF,14.9611,14.5873,-0.3738
LiURh2,41.342,35.6193,-5.7227
K3TaAg,22.1392,19.8191,-2.32
SmYNi,63.595,56.7904,-6.8046
MoRuS3,42.3394,31.7406,-10.5988
ZrTaGa2,58.326,48.4587,-9.8672
YSb2PtAu,48.8748,39.2981,-9.5767
LiGdO2,21.187,21.1593,-0.0277
ThIr4Au,47.5426,50.6823,3.1398
AcLa2Br8,21.8698,19.7691,-2.1007
Y2SbPt,39.4982,32.7628,-6.7354
CaPt3I,60.4891,43.2921,-17.1969
La11Ce,49.4629,33.6302,-15.8327
La11Ce,49.4722,33.6302,-15.842
Al3Cu2Si3,23.6938,18.9038,-4.7899
P2Rh,18.7153,16.2525,-2.4628
Ir3PbC,49.3642,47.6089,-1.7554
ZrZnPb3,53.1842,50.2549,-2.9292
Ti3NbTl,34.342,33.2524,-1.0897
Sn2Rh2Au,37.3727,32.3293,-5.0434
NbIn3Ni,42.0382,37.7075,-4.3307
NiBIr3,29.8247,31.6887,1.864
YSb2TePt,47.8585,37.6664,-10.1921
LiCoRu2,10.4976,13.2593,2.7617
Hf2ScPb,86.2155,65.868,-20.3475
PRu2Rh,25.4753,22.198,-3.2772
Sn2RuPb2,28.0632,29.9447,1.8815
MnHgAu,49.2141,41.9907,-7.2234
LiSbIr2,32.8523,33.3692,0.5169
Ac2NdGe2,28.6641,32.4098,3.7457
Sc2TaCu,83.3285,66.8915,-16.437
AcTb2Sm3,32.4983,34.4677,1.9694
AgSnP3,13.5929,12.652,-0.9409
Ta(CuRh)2,24.1511,20.5822,-3.5689
Sm2Cd3Cu2,17.0683,18.7056,1.6374
LiZrCu,35.7848,31.3058,-4.479
AcTbSm,34.3247,38.1954,3.8707
PRuRh2,40.6151,30.9235,-9.6916
Fe2PbBr,19.3711,17.6609,-1.7102
LaNpAu4,51.3467,50.1394,-1.2072
Na2ZnIn5Ag2,19.4591,17.9507,-1.5084
Ti3SnAu,22.429,16.8445,-5.5845
Nd3Dy(TlS2)4,45.983,38.7708,-7.2122
LiSbOs2,32.5355,32.7819,0.2465
V3NiIr,88.0324,71.5127,-16.5197
TaTi3Sn,13.9278,13.0413,-0.8866
TeAsOs,32.4198,33.7458,1.326
Ti3ReTc,19.5249,21.8948,2.37
Rb(NaSn3)2,19.3919,18.9773,-0.4147
Pm2Pr4ErSc,8.8825,10.1044,1.222
ScSi3Sn,30.5664,22.0974,-8.469
Ti3BiTe,15.4717,18.3785,2.9068
RbNa2Sn,17.9805,15.5923,-2.3883
Sn2SbOs2,28.3372,30.3254,1.9882
RbNa2Sn,17.8979,15.5923,-2.3056
ScBe2In,12.8306,10.1127,-2.7178
CsNaI,23.2583,22.6131,-0.6452
GaSb3S,40.4842,30.7431,-9.7411
Rb2Na5Sn4,18.9551,17.0425,-1.9126
ScBeIn2,16.3682,14.03,-2.3383
Hf3CdH,70.8203,49.0606,-21.7598
Cs2AlBr6,12.2037,13.6457,1.442
PmThO4,12.5521,15.0461,2.494
LiLuSn,17.9824,20.1557,2.1733
CaCoIr,29.4122,25.2108,-4.2014
CaYTc2F,70.8099,58.1624,-12.6475
Y4TlIn3,22.1257,22.4459,0.3202
SbWCl2,18.2822,18.0667,-0.2155
CaNbTe2I,51.3006,44.9866,-6.3139
NaZrMo2,39.3643,35.5719,-3.7923
Y2MnTeC,52.8313,42.3897,-10.4416
Ca2LaW,25.8574,23.2884,-2.569
NaTc2Os,63.7411,55.7475,-7.9937
NaLiInNi,13.9874,12.867,-1.1204
ScPd2Pb,26.7987,27.2602,0.4614
YTcNi2F,56.5827,46.9078,-9.6749
YUO4,23.6709,25.9184,2.2474
SmThS2N,31.4591,29.0631,-2.396
AsW2Cl,25.1328,26.138,1.0052
Ba6Sc2Fe4O15,15.0717,12.1101,-2.9616
Ba6Sc2Fe4O15,21.9881,12.1101,-9.878
NbV(AsO4)3,10.0099,9.5392,-0.4708
TlSbP2,25.8651,25.749,-0.1161
Cu3(AgAu)2,25.3693,24.323,-1.0462
ReWCl2,23.355,24.6659,1.3109
CaCoIr2,33.0163,29.8605,-3.1558
VCu3Ni,32.0034,27.1135,-4.8898
ScPdPb3,40.0504,39.2786,-0.7718
YBS2N,62.5626,48.4033,-14.1593
YAlPb2,45.6908,41.7633,-3.9275
CoSbAs,20.4959,16.8309,-3.665
Mn7Cd2Sn3,66.5878,52.9308,-13.657
CaBiPt,49.2284,41.4362,-7.7922
K3V5S12,50.0053,35.0779,-14.9274
Re2WCl,31.708,35.4997,3.7916
Pu3Si2Sn3Pt,45.7342,40.2446,-5.4896
TlSbP2,25.9287,25.749,-0.1797
Be2AgSb,20.8953,17.1318,-3.7635
SiAg3Ru,29.1913,21.0982,-8.0931
Si2AgRu,22.7722,16.8352,-5.9369
Th6BC2S3,59.7807,53.4517,-6.329
PmPRu,22.6976,22.1041,-0.5934
Cs2Cu2Rh,22.9546,20.5307,-2.4239
BeAgSb2,31.3654,24.4971,-6.8683
La5Tb6Pr,34.4257,28.162,-6.2637
Zr3(TlCu)2,58.4721,52.2477,-6.2244
CuAsPS2,34.7301,25.9968,-8.7332
InPb2,41.7415,43.7602,2.0187
SbWCl2,23.4038,18.0667,-5.3372
Na6Au,27.7819,23.5457,-4.2363
Cs2NaCa,18.8252,18.2029,-0.6223
K12RbNa6,15.4923,12.9628,-2.5294
CeNi2Ge,12.2314,12.1964,-0.0351
PmScP,39.683,33.1629,-6.52
FePb2W,40.454,39.9519,-0.5021
Cs6Na,24.341,23.6531,-0.6879
WCl3,7.9276,9.6234,1.6958
HfTiCu3,28.2006,22.1531,-6.0475
Tm(Zn2Pt)2,29.9249,24.1173,-5.8076
BaP2PdO6,14.0746,12.4322,-1.6424
La2NdHg3,17.6138,14.0174,-3.5964
ZrRh2Pb,55.3486,47.1091,-8.2396
Na3I2Br,20.5574,18.3725,-2.1849
Rb2Na2Te,16.6838,14.3928,-2.291
SiAgRh,32.2921,23.6904,-8.6017
Mn2TlRu,66.803,56.1149,-10.6881
Sm5Ni2,14.1853,16.983,2.7977
ThGeS,11.1945,15.5011,4.3067
Th6Ge2CS3,52.5839,49.1723,-3.4116
TaMoP,29.5937,26.2187,-3.375
Rb4TiI5,11.925,12.3941,0.4692
VSn2Ge,40.3046,36.1668,-4.1379
Sc4N3,1.5692,6.6982,5.129
PmAgSb,33.026,28.8404,-4.1855
ZrCu2,31.6164,30.4989,-1.1175
TaMoP,29.5135,26.2187,-3.2948
ZrOs2Ru,49.6006,49.7553,0.1546
LiLaMo2,15.3928,15.9923,0.5996
CoSb3As,34.9056,26.4484,-8.4573
Ti2(GaCu)3,9.1062,8.426,-0.6802
Ta4MoP,33.8412,33.0685,-0.7727
LaTb2Pr,25.0172,23.3724,-1.6447
RbSrI3,15.2963,16.316,1.0197
Co3SbAs,23.8716,17.832,-6.0396
GaAg3Sb,29.9177,23.2517,-6.666
Ti2(IrPt)3,50.3562,42.2689,-8.0873
ScVS2Cl,63.3617,49.1802,-14.1814
RbGa2Te,12.3452,13.996,1.6508
Ba2CdGe2O7,7.1741,6.6821,-0.4919
Pm2ErGe2,13.2445,17.1434,3.899
Rb3Y(US3)2,39.9674,33.1869,-6.7805
SrPrSm2,14.8666,16.642,1.7754
NaAcLa,47.0428,40.8585,-6.1843
Sc(FeP)3,30.265,23.6314,-6.6336
TiNb3Ga,88.4441,73.4719,-14.9722
Zn4N3,21.3056,18.8153,-2.4903
PIr2,39.5037,37.4346,-2.069
ThTiO4,-0.0,3.2302,3.2302
PmTl2SnS4,45.9066,38.6408,-7.2659
NaAgPtN2,31.1083,24.7305,-6.3778
PIr,29.0018,27.2675,-1.7342
U2Si2Ni2C,33.8458,32.0206,-1.8252
SrPbSeI2,27.8609,27.5399,-0.321
Zr4GaBi2,73.0754,63.9692,-9.1062
Rb2YUS6,35.5747,27.0464,-8.5283
Pb3SeI,46.5351,44.9688,-1.5662
Nd6YHg2,21.7977,22.0366,0.2388
Ba(InIr)2,19.9098,23.7889,3.8792
TiGeRh3,24.579,18.5063,-6.0727
SrMg2TcH8,10.9042,10.1128,-0.7914
CeB2PbO6,6.826,7.7168,0.8908
RhPbF6,17.8336,17.4272,-0.4064
ZnOF4,12.8434,9.7858,-3.0576
RbYUS4,36.3261,28.9013,-7.4248
Cd2Pt3Au2,57.4573,46.4209,-11.0365
PIr,0.0,27.2675,27.2675
Rb2SrI,9.4662,9.9159,0.4497
Th4BiOs,51.9644,55.7231,3.7587
Pm2PrGe2,6.5075,10.6379,4.1305
ThScS,54.8232,52.5071,-2.316
Pr3BSe6,20.5722,17.4266,-3.1457
CsNa2Ca,19.7543,17.4785,-2.2758
BaSrCr2,17.3521,14.9123,-2.4398
SrBe2Br,11.4225,7.974,-3.4485
BaLiCr2,15.1196,12.4601,-2.6595
Be2IrBr,14.3529,16.5246,2.1717
Pu(ReGe)2,45.7394,41.7884,-3.951
CdRuBr2,19.7333,17.5955,-2.1379
BaHf3W,96.619,70.6045,-26.0146
CsSrCa,16.7262,15.3047,-1.4215
PaV,98.3034,87.42,-10.8834
CdRuBr2,20.1032,17.5955,-2.5077
ScSCl2F,28.459,23.5596,-4.8994
TlNi,17.5992,22.4779,4.8786
Ba(SrZn)2,6.7426,8.6185,1.8759
ZrTl2VPb,77.2077,68.0643,-9.1433
BeInBr2,10.8984,11.8023,0.9039
RhCSe2,52.8526,39.526,-13.3266
CdRuBr,22.908,20.7439,-2.164
SrTaOs,42.1386,37.5025,-4.6361
Nd2GeRh,20.004,19.9353,-0.0687
YbSnOs,26.5232,30.2796,3.7564
Ta2InOs,33.707,38.3816,4.6745
Ta2(TiMn)3,48.1989,41.3272,-6.8718
Ta2InOs,33.8394,38.3816,4.5422
Ca2RuW,21.3799,20.8391,-0.5408
Sr2TaOs,35.7917,31.5162,-4.2755
Pm2TmAlC,28.4577,25.8422,-2.6155
Cr2SeI2,22.1057,20.6887,-1.417
Tb2Ce2Tl3,36.2654,38.3071,2.0418
Tb3PtN,32.9967,31.1755,-1.8212
NaCuHg2F6,7.0404,7.5787,0.5383
TaIn2Os,29.9766,33.0262,3.0496
K2YBe,13.9036,10.5518,-3.3518
Hf2Ge2Ru,38.6484,28.0241,-10.6243
NaSi3Os,22.6335,17.9054,-4.7281
PrSmTh2,38.1702,40.8645,2.6943
Th4OsPt,57.0346,56.8037,-0.2309
Zr4SiPt,73.8361,58.6958,-15.1403
SrBrCl,18.6808,18.9098,0.229
SmSn2Pb,29.4291,31.1632,1.7341
CsTh2Te5Au,40.2019,41.2177,1.0158