Formula,E_hull_DFT (eV/atom),E_hull_ML (eV/atom),Delta (ML - DFT)
La4Ga12Au,20.3026,16.6405,-3.6621
CuPbSe,36.1811,34.7838,-1.3973
LiInSe2,30.0362,24.7903,-5.2459
SrTcO3,0.0,4.8833,4.8833
KReSi2,21.3624,18.7775,-2.5849
YTlRe,35.6437,38.4288,2.7851
K2RbTl6Pt,39.6387,37.2124,-2.4263
Sr2CaY,16.6235,14.5042,-2.1194
CaZrHg3,20.7169,16.9572,-3.7598
LiInSe2,30.2774,24.7903,-5.4872
Er6FePd2,17.5637,20.5355,2.9719
SrCaY2,18.9237,15.1735,-3.7502
Ac3La2(PrTl2)2,44.3714,42.3688,-2.0026
NaRe3Rh,42.2518,39.1443,-3.1076
Tb5(Er6Zr)2,36.0645,35.1489,-0.9156
Pr6FeAu2,6.6958,7.3869,0.6911
CaYCu2,22.8051,18.3457,-4.4594
Ba2TlSn4Au3,27.0445,28.1455,1.1011
MnCrBr2,46.6754,39.6527,-7.0227
K2ZnAgBr6,9.6611,9.9265,0.2654
ZnCdC2,35.289,26.4428,-8.8463
CaYCu,25.9084,21.9195,-3.9889
Nd4Ga12Os,13.6527,15.0603,1.4076
KHg2PdBr6,9.2775,9.7644,0.4869
In2NiAg,19.3605,19.4611,0.1007
NdMnCu4,25.1569,23.4328,-1.7241
Ac6FeRh2,53.6517,52.7898,-0.862
Te2RuCl,26.4965,26.2995,-0.197
MnNi2Br,56.5495,50.5857,-5.9638
ErHfAgPd,55.1711,45.5917,-9.5794
Pr6SmSc,7.3051,6.1593,-1.1458
Sr3NbAl,38.1577,33.0748,-5.0828
BaScMo,19.2456,19.871,0.6253
HoTlPb,43.7617,45.986,2.2244
TlCdGa,20.2436,22.3597,2.1161
HfZr2Nb,120.619,93.6684,-26.9506
ZrNiAg2,37.4755,33.0242,-4.4513
HfZrNb2,131.4198,103.7828,-27.637
Mn2ZnSi,56.003,46.3069,-9.6962
Ca2YCu,20.7806,17.9985,-2.7821
LaSb2As,37.3118,28.6411,-8.6707
LaSbAs,34.8077,26.6841,-8.1236
CaY2Cu9,16.8848,14.8949,-1.9899
Ca(YB)2,75.2554,63.2505,-12.0049
NaInNi3,13.5377,13.8245,0.2868
AlIn2Br,13.602,14.7128,1.1108
Te2Rh,45.135,38.3368,-6.7982
AlIn2Br,13.6732,14.7128,1.0396
Sr(IBr3)2,12.3214,13.3754,1.0539
Sr(AuBr3)2,17.141,17.6504,0.5094
Pr6SnRu,21.6832,19.9128,-1.7704
Ca(SmSi)2,15.2344,14.2957,-0.9387
NdSmZrSc,38.4905,36.1016,-2.3889
Ca(ThSi)2,30.7315,30.1893,-0.5422
Ca2PdSe,34.8759,30.5505,-4.3255
La2SbAs,38.5449,29.3609,-9.184
AcAlBO5,0.0,2.877,2.877
Sn2Bi2Sb,39.345,38.352,-0.993
AgPtBr3,32.9112,26.1266,-6.7846
Ca2Ag(GeAu4)3,35.2524,35.6855,0.4331
Zr2TlP,62.2984,53.7727,-8.5257
SrTcAs2,36.3008,30.3399,-5.9609
AgPtBr2,37.9291,29.2568,-8.6723
Cd(SiPt)2,45.3313,30.7452,-14.5861
HfRuPt3,86.8578,60.0084,-26.8494
TeRh2,46.9822,37.3548,-9.6274
LuGa2Sn,17.523,19.4449,1.9219
Sn2Bi2Sb,35.5105,38.352,2.8416
TePRh2,35.5482,30.865,-4.6832
Rb2Ga3H2Pt5,39.4066,27.1631,-12.2435
Ca2AgWO6,37.9638,32.2829,-5.6809
CaTaSe2,54.6545,46.0517,-8.6029
Li2InRe,16.8223,17.208,0.3857
Sr2Ge5Au3,17.1988,18.8381,1.6393
CaY3B,52.4451,42.7959,-9.6492
Pr3GaIr3,14.3939,15.6798,1.2859
KU(CuSe3)2,32.9723,28.5381,-4.4342
CaTaSe2,55.1373,46.0517,-9.0856
Ta3GePt,42.7718,39.4084,-3.3634
AcTbY2Tm,24.7459,27.9201,3.1742
KWO3,12.8218,10.4275,-2.3943
Rb4Mn3SnBr12,22.1207,19.7328,-2.3878
ReP2Pb,45.9026,40.1045,-5.7981
In6Ge2Ru,17.1414,18.2502,1.1088
Rb2LiBe,2.7118,2.5127,-0.1991
Ce2PaSi2,21.9094,22.7794,0.8701
Sm4As2AuSe,32.9247,33.7214,0.7967
Gd2ThAl,31.746,35.0198,3.2739
ZrAlSb2,47.6845,38.5083,-9.1761
Nd3LuFe,21.7234,23.9254,2.202
Li2TaSeO6,20.7588,17.9318,-2.8271
Ca3YMn,30.138,24.1488,-5.9892
Ta2PPt,43.1099,38.6775,-4.4325
Ce6Ga2Sb,23.1562,23.8489,0.6928
CsTb(AsPt2)2,52.9761,38.9142,-14.0618
La2BiAs,40.713,33.9679,-6.7452
YLu2Th,36.863,40.5276,3.6646
CsCu3Tc,29.9548,26.8954,-3.0595
TaPPt2,56.2823,42.532,-13.7503
Ce2SmSi2,14.2467,14.8568,0.6101
RePbCl,33.198,34.5558,1.3577
LiCa3Tc,22.7643,20.6607,-2.1036
MgV,57.5847,44.58,-13.0047
ReTe2Br,35.0764,33.9859,-1.0906
U4NbRh12,58.6414,46.9431,-11.6983
SrPr5Te8,21.864,21.2008,-0.6632
Cd(NiGe)2,17.0476,13.2837,-3.7639
AcCe2Y,32.2026,34.5445,2.342
InBiC2,51.043,42.1884,-8.8546
K2ScPb,20.6063,20.8176,0.2113
NaCd3O,16.5522,15.9084,-0.6439
Ta2PtRh,52.7114,45.6343,-7.077
InCu2Br,14.7262,14.0799,-0.6463
CaNdI6,19.802,20.4851,0.6831
Tm(UIn4)3,29.581,30.9416,1.3606
Cu2TeSe2,30.7312,26.5719,-4.1593
Be2BiI,30.0193,32.1824,2.1631
BeBiSb2,36.7227,32.5602,-4.1625
SrTc2As,51.1623,47.9594,-3.2029
InCuBr2,15.3055,14.8255,-0.4799
ErPu2Pd9,27.098,29.4173,2.3193
RePb2Cl,37.8338,39.7648,1.931
InCuBr,16.915,16.4931,-0.4218
LiAcNd2,28.7982,31.6116,2.8134
CuSbRh,7.0996,4.864,-2.2356
ReNi7Rh4,30.1282,22.609,-7.5192
Mn2ZnPb,65.1007,56.3042,-8.7965
NaLiBeW2,24.6458,24.0128,-0.633
Pa4Ni12Pt,25.0893,25.1012,0.0119
PmY2Te3,28.4714,28.4524,-0.019
Ta2GeP,23.2822,25.7062,2.424
Sr3NpO6,0.8601,5.7864,4.9263
Pa4Ni12Rh,22.7684,23.87,1.1016
RbCrP2,28.8914,22.0622,-6.8293
La3Yb,47.5579,34.4915,-13.0663
Li2AgPbF6,7.4876,7.0971,-0.3905
CdPAu,23.4949,24.7865,1.2916
Ac6Ga2Hg,40.7911,43.8555,3.0644
Ti2SnSb,22.8033,17.469,-5.3343
Ca2CrOs,25.3237,22.8383,-2.4855
In6Ga2Bi,21.215,22.0724,0.8574
La3Pm4YTe8,36.3574,32.4688,-3.8886
P2PbAu,27.3562,28.9788,1.6225
AlRh2W,34.6684,29.5028,-5.1656
BeNiSb2,29.1064,23.3919,-5.7145
Be2NiSb,17.6745,15.8468,-1.8278
ZrSbC2,59.5735,44.894,-14.6795
KLi2ZnF6,1.0953,1.2091,0.1139
Li2GaPdF6,7.0287,6.5684,-0.4603
KLi2PmF6,6.0135,6.519,0.5055
Hf2TaV,125.1502,95.473,-29.6772
YTmZnPb,27.8275,28.436,0.6085
Ta2CdP,26.3213,28.1169,1.7956
Ce(PuGa3)2,23.9533,25.7102,1.7569
NaZnIn2C,27.1742,22.4797,-4.6945
LaNb2Ag,85.7765,69.2337,-16.5429
SrLi2GeBr6,12.8615,12.0209,-0.8407
Ac5Tb,58.2446,60.8812,2.6366
Tc2Au,70.0245,66.6945,-3.33
BaSbSe4,39.5065,31.3391,-8.1674
Li2HgAuI6,16.8119,17.5993,0.7874
Nd2PaGa6,18.0087,20.2636,2.2549
SrLi2GeI6,12.2426,13.7401,1.4975
LiAlFe2,17.7498,15.9309,-1.8188
U(PaGa3)2,27.9549,30.3252,2.3703
TbPt5,78.439,54.6857,-23.7534
Al2AgSb2,22.1253,17.9104,-4.2148
Pa2CuSi2,27.3678,29.6369,2.2691
Zr(CdCu)2,26.4087,24.3212,-2.0875
CoW2Au,27.1911,32.8578,5.6668
PrAlIn,3.4037,4.7802,1.3765
Li2BeAl,12.4722,9.6078,-2.8644
YBi3B,74.0657,66.7843,-7.2815
Rb(NiSb3)4,37.5218,28.5801,-8.9417
Cs(NiSb3)4,38.8488,29.9596,-8.8893
LiAg2HgBr6,16.4398,14.8192,-1.6205
Co2CuAu,33.5784,29.6167,-3.9617
Zr3Au5,65.8835,58.9135,-6.97
SmUFe4,15.6666,18.4348,2.7682
MnCdSi,44.7924,36.845,-7.9475
LaErIn6,24.5832,23.3933,-1.1899
Li2MnHgI6,24.0764,22.5753,-1.501
SmHo3In4,23.1958,25.4034,2.2076
Tm2InHg3,12.9869,14.314,1.3271
Sr4Ge2I,10.1158,11.8669,1.7511
Pm6NdGa2,20.9004,24.4852,3.5848
Al3Ag3Pb,19.7929,18.2366,-1.5563
YAsAu2,28.965,31.7424,2.7774
KAl2V,33.7997,27.3642,-6.4355
Ce3IrSe,11.8372,15.1378,3.3006
MgAl2AgH8,6.8319,4.9826,-1.8493
YAsAu,17.2983,21.2528,3.9546
P2AuSe,22.0015,21.3917,-0.6099
Pu6Ga2Sb,54.7869,55.6083,0.8215
FeTeAs2,35.3859,31.2536,-4.1323
La(Ag3Ge)2,28.4742,22.9247,-5.5495
BaCoAu,20.9418,19.6817,-1.2601
FeTe2As,39.1017,34.5891,-4.5126
Sm3CrIn3Ge2,17.4965,18.8316,1.3352
TaCd2Ru,23.2385,26.3811,3.1426
YBeB,60.5013,52.3483,-8.1529
ZrFe2Au,36.4112,33.8087,-2.6025
Sr2Ac3Pt2,56.4066,49.5467,-6.8599
PPtI2,34.5191,26.5916,-7.9275
MoAu3,34.9341,39.5463,4.6122
SrAcPt,55.1729,47.0556,-8.1173
YAsAu3,33.947,34.5606,0.6136
SrAc2Pt,57.4138,52.6638,-4.7501
Re2TeBr,34.5587,35.356,0.7973
NaCrAs2,10.5651,10.8525,0.2874
CdPb,35.9437,37.3798,1.4361
TlAg2Pt,50.8537,40.638,-10.2157
Th2RuO,42.2939,44.7105,2.4166
HfGaTc,56.937,47.0343,-9.9026
Li2AcOsO6,22.2355,22.4689,0.2334
LaBe2In,17.8966,15.4596,-2.437
Pm(Dy5Th2)2,37.8988,39.7011,1.8023
DyCu4Sb,16.3704,16.4578,0.0874
Rb3Dy3SbTe8,30.2226,28.0294,-2.1932
SrSm2DyS4,37.7581,31.3389,-6.4192
PmMg2AlH8,6.9935,5.7792,-1.2142
Pu6Ge2Os,42.5564,46.2701,3.7137
Sr6TlGe2,13.6875,15.7626,2.0751
Sr6CdGe2,11.5483,12.2397,0.6914
Ba4IrI2Br,11.4798,12.5284,1.0485
Ac(ThGe3)2,27.4889,29.6293,2.1404
Er6InGe2,18.3458,21.6512,3.3054
Sr6SnGe2,9.9887,11.6389,1.6501
CeCd2Ag,20.617,20.9445,0.3276
MgPt4,66.1367,44.5544,-21.5824
LaFeAg4,29.7781,23.7091,-6.069
Li2ScReO6,41.0311,38.6748,-2.3563
Sr(GaRe)2,22.6481,23.8596,1.2115
Li2ScTcO6,39.5909,36.3096,-3.2814
AcH6PdPt2,25.8464,20.8446,-5.0017
TiFeAsBr2,24.0304,20.4422,-3.5882
YAs3Au,18.9358,19.9012,0.9654
CaTl2Ga3F12,10.9434,11.6463,0.7029
Ca3TbTl2F12,10.9697,12.1043,1.1346
TlReCl,32.6981,35.0167,2.3185
La2Tb3Pr2,24.913,22.0023,-2.9107
AcH7(PtRh)2,28.3351,21.415,-6.9201
TaMnSb,60.2787,53.0892,-7.1895
Li2PuTaO6,13.6905,16.5918,2.9012
YAs3Rh,18.5187,16.5114,-2.0073
Ca2Er(Mg4Cd)3,7.2027,8.154,0.9513
Tc2TeP,51.0542,46.3552,-4.699
TaTeBr3,22.9115,22.5378,-0.3737
AlCrRe3,28.0759,29.3057,1.2298
Pu6Ge2Pt,59.8809,58.6392,-1.2416
Ba2Li6AgPt,15.377,10.8359,-4.5411
BeAl3C,24.3036,17.8409,-6.4627
Pr3NiI,3.7997,4.4546,0.6549
Th6TcGe2,55.9691,57.443,1.4739
Be4TeAs,11.8576,10.9217,-0.9358
ZnRe3Sb,46.0451,39.3809,-6.6642
U6Ge2Sb,52.7126,54.4705,1.7578
Ba2LiAlIn6,13.6576,13.1005,-0.5571
POsRu2,11.6869,18.2316,6.5448
Mn2AgSn2,48.9441,41.484,-7.4601
LiNp(AgI3)2,22.9171,22.1555,-0.7616
LiAl2GeS6,35.5694,25.1036,-10.4657
GdZrP,24.1409,15.7822,-8.3587
MnCo2PtSe6,43.8297,33.3409,-10.4887
InFeAg3,25.827,20.3287,-5.4983
TcNiAg3,39.9171,33.5415,-6.3757
Na2Sn2Ru,17.5935,16.9842,-0.6093
La2Gd,44.2252,34.1512,-10.074
LiIn2BiBr6,16.3285,16.9244,0.5959
Ce2NdGe6,13.8747,15.7456,1.8708
CrFeAg2,29.6792,22.6223,-7.0569
Cs2FeReO6,21.4437,20.9038,-0.5399
MoAu2Se,39.9983,38.9726,-1.0257
Sm4Ga12Ir,17.0722,16.5288,-0.5434
TaPbF2,34.0537,31.6203,-2.4334
Sm4Ga12Pt,16.4434,15.5514,-0.892
LaGdSc2,22.8472,20.5566,-2.2905
P2OsRu,7.9661,13.2977,5.3317
LiTl(InBr3)2,18.8798,18.7869,-0.0929
Ba2LiAgBr6,8.6352,8.5105,-0.1247
Mo2AuSe,32.0837,31.701,-0.3827
LiAlIr2,25.1557,29.0876,3.9319
NaSnRu3,20.3482,20.7541,0.406
LaGdSc4,17.0866,15.6995,-1.3871
WBrCl2,15.0286,16.4137,1.3851
POsRu3,20.6982,22.7169,2.0187
LiAlIr2,25.1208,29.0876,3.9668
NaSn2Ru,20.4195,21.6723,1.2528
LiTb(InBr3)2,12.526,13.7442,1.2181
LiAc(ReN3)2,56.5595,53.5933,-2.9662
LiTh(ReN3)2,56.2912,53.3666,-2.9246
Ce(TmIn4)3,21.8081,22.9904,1.1823
Rb2LiNpBr6,12.3324,13.3692,1.0368
Rb2LiNdBr6,8.1601,9.3014,1.1414
AgPIr2,37.018,34.0487,-2.9693
YAsRh,15.987,15.0937,-0.8933
NaMn3C,80.5167,64.4548,-16.0619
CsBaP,9.8755,11.3051,1.4297
LiPb(NO3)2,5.9512,6.4331,0.4818
Gd2ZnFe,18.4642,19.1372,0.673
MoI4,17.7887,18.3172,0.5285
Al(GaSb)2,18.6922,15.9027,-2.7896
AcNi4Pt,29.666,27.3228,-2.3432
OsRu3I,29.5358,28.1489,-1.3869
Sc2In3,11.9826,11.7982,-0.1844
AlAg2Pb,29.6601,27.9606,-1.6995
LiLaLuIn,27.3417,23.6608,-3.6809
Ac(NdGe3)2,18.2378,20.1739,1.9361
Pm2NdGe6,13.8416,15.8874,2.0458
Zn2CrFe,17.2916,13.8073,-3.4843
AcNdTePt,53.8996,48.7529,-5.1467
LiSm(TlCl3)2,11.3065,12.9163,1.6098
Al2AgP,26.2399,22.1228,-4.1171
Tl4FeAg,39.9765,39.5706,-0.4059
Cs2LiTeCl6,8.9057,8.738,-0.1677
PmNd5Er4,26.6978,28.8825,2.1847
AlGe2C,26.0824,20.9589,-5.1235
BiSb2P,37.4444,33.3137,-4.1307
Cd(FeP)2,30.7339,26.9082,-3.8256
Rb2IrOsCl6,10.9211,11.3116,0.3905
Sr(NdGe3)2,12.7342,14.5891,1.8549
Mn(PRu)2,19.8463,18.8425,-1.0038
LiTm(TlI3)2,22.9536,24.6,1.6464
Sm2Ga3CuAu4,27.218,27.9861,0.7681
Ba2TaBe,13.3029,13.7548,0.4518
CaSc2I,16.5053,12.551,-3.9543
LiPm2Ga6Cu,7.2236,9.2157,1.992
LiCaAg2F6,5.8439,5.0619,-0.782
YAsRh2,23.1113,20.8365,-2.2748
InNiAu2,30.1036,31.8175,1.7139
NaCuTe2,25.3432,24.9379,-0.4053
InNiAu2,30.137,31.8175,1.6805
Pd2Se2Br,24.4179,22.4861,-1.9318
AlIn2Si,24.8432,22.4805,-2.3627
Co2MoAu,20.2222,21.94,1.7177
MnAlMo2C,46.5966,35.8801,-10.7165
Ba2YB,51.0679,42.446,-8.6219
TiVRu2,41.0408,37.3319,-3.7089
LiAlOs,19.0969,20.252,1.1551
AlInSi2,23.6835,19.3498,-4.3337
Y2ScCuRh,30.4865,24.9383,-5.5482
Zn4GaTe2,17.7646,17.2406,-0.524
Sn2Se2Br,29.4332,25.7035,-3.7298
Cs2LiNdI6,16.5102,17.7073,1.1972
K2LiPuBr6,14.2551,15.068,0.8129
Ce4Ge12Os,14.377,15.3765,0.9995
Ca2ZrCr,39.3361,30.5983,-8.7378
CrNi2Ag,24.0159,22.7783,-1.2376
Na2LiICl6,10.3856,9.4032,-0.9824
Ca2ZrCr,39.3318,30.5983,-8.7335
ErTmBi,37.7847,40.6638,2.8791
TiZn3Te,15.1227,14.5891,-0.5336
ZrScVRh,69.9704,55.7911,-14.1793
Y5P4S,36.4372,28.3131,-8.1241
Be2SbSe,19.2146,16.6916,-2.5229
TaSiPd,0.0,5.0081,5.0081
LaTmAg,25.8643,21.1023,-4.762
AcGdPt4,74.2753,56.3327,-17.9426
Tc2PdPt,73.6266,60.9871,-12.6395
Cu(NiAg)2,12.7901,12.706,-0.0841
Ac2CePt,60.6753,55.9394,-4.7359
TeAu4,46.4326,47.3386,0.9061
NaCuSnTe3,41.0222,36.1835,-4.8387
LiMn(TlBr3)2,29.9495,27.8452,-2.1043
LiPm2MnGe6,14.986,15.5806,0.5946
Ag(TeAu)2,39.1822,37.8814,-1.3008
LiMn(GeSe3)2,35.9518,28.4857,-7.4661
LiAc2MnGe6,22.9697,23.5463,0.5767
LiCe2MnGe6,14.6913,15.0211,0.3298
LiLa2MnGe6,20.16,16.4399,-3.7201
BeSbSe2,35.5262,28.6966,-6.8295
Na2LiBiBr6,19.8953,18.8245,-1.0708
NaZrCu3,29.5606,24.5508,-5.0098
Hf2Pb2Au,82.3969,67.7521,-14.6448
SmGa2PbAu5,36.4109,37.7411,1.3302
CrGaF,6.2808,5.2381,-1.0427
Pr5TlGa2,5.8881,5.523,-0.3651
Sm2NiAuC,32.3226,30.3584,-1.9643
BaInPt2,44.1752,30.5215,-13.6537
Rb2GaGe2,5.9451,4.3351,-1.6101
Na(CuTe)3,20.8543,19.6959,-1.1584
RbBa2Nb,34.2786,29.0438,-5.2348
Na(SnMo)2,38.8669,29.8438,-9.0232
ScCrCd2,21.1682,18.8306,-2.3376
Y2CrSiO6,19.5092,17.1108,-2.3984
Ca2TeRhC,31.8111,24.8169,-6.9942
Na2SbOs,30.7819,29.236,-1.5459
Gd2PI2,27.6088,25.2644,-2.3444
CrCdI2,18.8126,18.7746,-0.038
Sr(CdI3)2,18.9245,18.6916,-0.2329
YCuRu2,26.329,25.0225,-1.3065
Sm2MnCu,39.0812,36.3525,-2.7287
CsBa2WO6,1.0703,4.2611,3.1909
SrY3Ru,19.8821,16.8196,-3.0625
Na2MnAuBr6,26.1881,24.8006,-1.3875
CeYRu,16.7665,14.3858,-2.3807
AcPtN,44.0556,42.6588,-1.3968
SbAsPd5,4.9591,6.5396,1.5805
TbTmAgOs,32.2923,34.4644,2.172
LiCeNd2O6,4.8981,6.6599,1.7618
NiAs2WSe,43.0371,38.2947,-4.7424
YMnNiI2,69.7976,59.546,-10.2516
Ac(PtO4)2,22.3346,18.0317,-4.3029
ZrGe2Pb,37.6678,35.6231,-2.0447
ThNpOs2,54.8526,60.1117,5.2591
InIrSe,37.2278,36.9336,-0.2942
LiPm2CuO6,4.0114,6.4913,2.4799
CrSbRu,23.5154,21.8019,-1.7135
Ac2Tl(Cd4Ag)3,27.9975,27.4059,-0.5916
Na2Sb2Os,31.7076,27.0312,-4.6764
LaCoBr,30.848,23.2121,-7.6359
AsRh2C,43.0388,32.134,-10.9048
Y5CuRu4,26.2216,19.9921,-6.2295
Ca2P2Os,26.7547,24.0788,-2.6759
Ca3POs,23.2287,21.7043,-1.5244
BaIn3Cl,12.529,13.1978,0.6688
LiAlSe,20.8649,17.6429,-3.222
LiNd2GeO6,3.3756,5.9339,2.5584
PrLuHfTh,59.8384,52.7078,-7.1306
LiAlRu,10.6933,11.8909,1.1975
NiBi2Sb,44.9736,42.2862,-2.6875
Na4TeIr2,33.1186,30.6508,-2.4679
Ca2FeC,27.9275,22.0661,-5.8614
CaLaPr,18.3494,13.3493,-5.0001
Zn3SnIr,20.8874,18.9023,-1.9852
SrY3Ru,20.0541,16.8196,-3.2345
LaCeGdSc,27.9208,25.9434,-1.9773
YRu,0.0,1.5698,1.5698
NaPmZnSe3,28.046,24.1823,-3.8637
Ca2CuOsO6,22.3439,21.1943,-1.1495
Li2CaDyF8,5.7057,5.7522,0.0465
Sr3YRu,18.1753,15.7026,-2.4728
SrLa3Re,48.4362,34.8876,-13.5486
Cs2AlI,18.7344,18.4694,-0.265
LiMgNpO5,15.2624,17.4235,2.1611
CaLa4In,38.7082,26.9973,-11.7109
Er4TlPbO,25.3039,27.6731,2.3692
SrY3Ru,13.4877,16.8196,3.3319
SrY3Ru,14.2816,16.8196,2.538
LiHfMn2O6,75.8919,65.2558,-10.6361
CoPbW2,37.276,40.0574,2.7814
Ca2Tb(PPt4)3,67.8856,46.9419,-20.9438
Tb6YSc2,15.4492,18.5942,3.145
CaLaIn,21.6708,18.232,-3.4388
YCuRu,8.9673,10.0659,1.0986
KLaTa2,29.6816,29.0608,-0.6208
POsC,29.0319,26.6424,-2.3895
Ca2OsRu,17.6546,19.9335,2.2789
KSrIrO4,25.319,22.0883,-3.2307
K2Rb(NaBi)2,26.0348,24.6265,-1.4083
Zn2As2Ru,10.2699,8.219,-2.0509
PbAu,49.9104,52.8699,2.9595
CaOsRu,21.7816,20.3426,-1.439
CsReSi2,17.952,17.9346,-0.0174
Tb3DySb2C,35.9992,31.8189,-4.1802
Ta2AsPb,34.1925,37.2531,3.0606
InAsP2,18.4802,16.9276,-1.5526
Sc5Cd(InRh)2,12.8766,11.4705,-1.4061
LiAlRu,10.2444,11.8909,1.6465
In2AsP,22.3101,20.4099,-1.9002
Tb2Pr(AlAg)2,16.953,16.9452,-0.0078
CsAlV3,85.1791,66.9092,-18.2699
TaBiAs,14.1247,20.2454,6.1207
TaAsPb,33.1605,37.3915,4.231
TaBiAs3,24.6334,25.8003,1.1669
ScCrCu,28.0368,22.7596,-5.2772
LiTc(RuO3)2,23.5023,20.7636,-2.7387
LiLa2TeO6,25.3551,23.348,-2.0071
PrCrIn2,5.7341,8.2828,2.5486
LiTe(PbO3)2,15.9129,16.4241,0.5111
Sc2Cr2Cu,19.1632,14.8682,-4.2949
LiAlRu,10.2133,11.8909,1.6776
LiY2MoO6,30.7048,27.2294,-3.4755
Ac2AlGa3Pt4,50.5428,39.5999,-10.9429
TaCrGe2,34.4444,27.1814,-7.263
Ga2Cu2Te,13.9222,12.5124,-1.4099
Sb2Rh,46.2663,35.1084,-11.1578
Sr(TmGa3)2,13.3977,15.1422,1.7445
KRbTaSe4,28.9711,25.1562,-3.8148
AcTb2Pt,51.2369,47.0114,-4.2254
Pu(ThGa3)2,27.7645,29.7845,2.02
BaLiV2O6,30.9783,26.1994,-4.7789
MnSiPt2,73.129,53.0862,-20.0428
FeTe2Au,32.9713,32.9158,-0.0555
CaMoOs2,29.8867,30.7129,0.8262
SrCaGa,11.0867,10.4014,-0.6853
Np4Ge12Pt,28.1113,27.5561,-0.5552
LaTaW,43.0534,40.9068,-2.1467
Sr2TiNi,11.3975,11.9417,0.5442
P3Ir2Au,32.5836,29.1137,-3.4699
Ca3MoOs,18.2581,16.7448,-1.5133
La2TaW,45.3247,38.6394,-6.6853
LiPu2NpS6,54.4765,45.5052,-8.9713
SiTe2Au,36.936,33.7162,-3.2198
LiTb(GeS3)2,32.8472,24.232,-8.6152
LiGe2SeS6,36.4443,25.9885,-10.4558
LiPu(NpS3)2,54.3688,45.4064,-8.9624
SiTeAu2,37.9781,37.985,0.0069
ErMn2O5,49.5607,46.5378,-3.023
SiTe2Au,33.1345,33.7162,0.5817
ZrAs,5.021,4.4425,-0.5785
Ac2BeAl3Pt4,53.1934,40.5973,-12.5962
LaNbAg2,64.2955,51.0705,-13.225
Ac(SiPt)3,46.8156,32.151,-14.6646
Pu2ThGa6,28.5409,30.6996,2.1587
Tm2Se2I,34.5186,31.5454,-2.9732
CsRbCu3,10.466,10.594,0.128
Ac(TmGa3)2,19.036,20.9021,1.866
InBiO3,2.9647,7.5437,4.579
BeIr2Pb,29.4005,33.5476,4.1471
LiTb(SiS3)2,35.5488,25.1275,-10.4214
Na2LiOs2,22.9366,25.5638,2.6272
Cd2PbAu,34.5726,35.6433,1.0707
LiTb2PaS6,44.7685,35.7399,-9.0286
Tm(ThGa3)2,23.0788,25.1547,2.0759
GaFeCu3,22.9705,18.2384,-4.7321
LiMnPd,33.7422,31.1213,-2.6209
Pu(UGa3)2,28.6329,30.6979,2.065
InBiO2,10.2143,12.4564,2.2421
AsAu2,31.4842,34.5587,3.0745
TlCd2Au,34.1459,35.2411,1.0952
PRuBr2,16.3511,15.6251,-0.726
LiPm2ZnGa6,7.1096,9.3516,2.2421
LiSc2Al,6.2965,7.6304,1.3339
Na3LiRu,19.0274,16.3799,-2.6475
BaCd2Au,21.1794,22.2947,1.1153
YbTlCu,24.6874,28.5277,3.8403
Ta2Ti2Mo,10.0665,15.0408,4.9743
AsP2Au,25.4013,23.7062,-1.6951
LiSc2Al,6.2042,7.6304,1.4262
NaZr2Sb,61.403,50.728,-10.675
AcTbPtBr,47.5006,43.2884,-4.2121
LiU(AgI3)2,22.9906,22.0664,-0.9241
Ac4In12Au,31.5533,32.614,1.0607
Nd4In12Pt,24.5786,23.8542,-0.7245
Dy(ZrGa3)2,29.9749,26.6554,-3.3195
LiNp(InBr3)2,16.5,17.6405,1.1405
RbTaSe2Br,28.532,24.942,-3.59
CaSc2Ti,12.2971,9.2249,-3.0722
NaInTe2,28.4461,26.7976,-1.6485
ThZnIn,31.025,33.526,2.501
Ac6P2Ir3Br,48.0267,47.7893,-0.2374
Ac2RuPt,61.8855,54.328,-7.5575
Ge3PtW,32.4667,27.3175,-5.1492
CsAlC,17.1207,16.0781,-1.0427
Hg2PdSe2,19.9757,17.4895,-2.4862
Sn2PdSe2,28.832,24.4389,-4.3932
Ge2AsPb2,22.906,24.5286,1.6225
Li2(TbIn2)3,18.7108,19.0667,0.3559
AgRuRh3,49.9713,37.1087,-12.8627
TbHfInAg,55.2453,45.3283,-9.917
Gd2CoGe,25.1421,24.43,-0.7122
LaBe2Cu,17.7162,12.5046,-5.2116
Sb(AuI4)2,29.4753,28.8481,-0.6272
LiIn2SnCl6,9.2676,9.2992,0.0316
Cd6GaSn2,18.3872,19.3034,0.9162
NaTl(HgBr3)2,11.5312,11.5374,0.0061
Rb(H3Au)2,7.7949,9.0928,1.2979
BaWN3,1.8419,4.6671,2.8252
NaEr(TlBr3)2,17.602,19.0649,1.4629
NaHo(TlBr3)2,17.492,19.0117,1.5197
CsLa2Al,32.9266,24.964,-7.9626
HfGa6Tc,35.7039,29.685,-6.0189
HfGaTc,81.1894,47.0343,-34.155
TaPOs,19.8859,24.3937,4.5078
VO2,20.7407,16.6151,-4.1255
La2In3Ni2,24.6285,21.0781,-3.5504
Cs2Tl6Ga,40.1702,40.868,0.6978
TaP2Os,23.0061,25.7128,2.7068
BaCd2Re,49.6787,41.7431,-7.9356
ZrAlGa3,25.9898,22.3762,-3.6136
CaTaOs2,31.9393,36.0677,4.1285
In(Bi3Pt)4,60.6202,54.1875,-6.4327
DyPb3,46.1665,48.5799,2.4134
Sm3Pd2Au7,36.2492,37.9877,1.7385
Zr2Al5Ga,21.723,18.9283,-2.7948
Cs2MgAgCl6,6.2035,7.2022,0.9987
CaTa2Os,30.372,35.0698,4.6978
MnSiSb2,51.2417,41.3204,-9.9213
Y3Ru,19.0877,16.9702,-2.1175
TeOsC2,45.5198,38.9571,-6.5627
Pd2CBr,28.2237,24.4987,-3.725
MgCd(InHg3)2,5.0688,5.5566,0.4878
HfHg2C,47.4429,35.7148,-11.7281
CdRh2Cl,30.7366,23.886,-6.8507
BaCd2Re,49.4792,41.7431,-7.7362
YRu,16.5807,1.5698,-15.0109
HfPt2Rh,84.5918,59.192,-25.3998
Li2AcI4,18.0699,20.0083,1.9384
Ga(AuI3)2,24.294,24.9197,0.6257
CaAl2Se,35.8581,29.6023,-6.2558
Tb2PmScP4,21.6121,21.1514,-0.4606
HgIBr,9.5399,11.3348,1.7949
CaAc2(AsRh4)3,41.6623,31.8975,-9.7648
CaAlSe3,46.468,36.984,-9.4839
C2Br2F,29.4832,20.6678,-8.8154
Ce4Sm2C,30.1988,29.4024,-0.7965
Ba2SbAu2,23.5117,23.6393,0.1276
VZnC2,58.7016,44.3876,-14.314
CaAlSe2,46.1833,34.6428,-11.5405
Ti2CoPt,51.338,39.0676,-12.2703
Rb2LaC,26.5029,19.9677,-6.5352
Sn2Se2I,31.7955,28.0361,-3.7594
Ac2GaAs3Ir4,33.4404,35.5394,2.0991
NaTl2PbCl6,16.1974,17.0158,0.8184
SrYRu2,19.8165,18.2283,-1.5882
In12Sn4Bi,22.2673,22.9876,0.7204
PRhC2,37.4554,25.3538,-12.1015
Cr2ReGe2,18.8066,16.3535,-2.4531
PRhC2,45.0259,25.3538,-19.672
ReSnAs2,20.7749,23.0393,2.2644
CoPbBr,34.5473,31.0348,-3.5124
HfTlTe2,53.9577,44.895,-9.0628
Ru3WO,44.61,31.9272,-12.6828
HfTl3Te,68.2332,59.4513,-8.7819
Hf3TaCd,98.4597,73.6653,-24.7943
Ac2Be3GaPt4,48.7391,38.0283,-10.7108
LaBe3,8.8963,8.4207,-0.4756
Hf8Sn2Te,111.8995,81.1145,-30.7849
SrY2Ru,21.4675,17.1494,-4.3181
MnCo2IrSe6,39.0053,31.7552,-7.25
VCo3(CuH4)2,20.5635,16.0884,-4.4751
Sr2YRu,18.8585,16.3204,-2.538
LiLuAl4,9.3606,10.1463,0.7857
CeZnCd2,17.6495,18.8515,1.202
Rb2PBr2,8.1283,5.7711,-2.3572
Fe2Si2Pb,14.5937,11.2425,-3.3512