Formula,E_hull_DFT (eV/atom),E_hull_ML (eV/atom),Delta (ML - DFT)
Sm2(TmSc)3,19.6801,21.9347,2.2547
Tb3Sm2Sc3,18.1596,20.5461,2.3865
Zr3NiS,71.8063,55.9354,-15.8709
Sm2V2C3,69.5725,53.7547,-15.8178
Pm2YEr,23.226,26.4563,3.2303
TlCdSb4,41.726,34.8679,-6.8581
InCuP2,8.8517,8.9073,0.0556
CsZr2S,64.4156,49.855,-14.5606
Na12Pb3Cl5,15.1259,12.8899,-2.2361
YbRuPb,19.6456,25.7931,6.1474
Rb(SrZr)2,42.1275,35.5097,-6.6177
Yb2Fe3Ru,19.9371,17.8983,-2.0388
La2MgPbO6,19.1572,19.6581,0.5009
YbGaRu,5.7026,10.0672,4.3646
Yb3CdRu2,26.0719,28.1591,2.0872
Pr2Pa2Te7,37.0869,36.3932,-0.6936
Yb2AgRu,29.7019,29.8449,0.143
Li3(HgAu3)2,27.3486,27.8097,0.4611
Y2FeRh,21.0484,18.7097,-2.3387
YbPaRu2,33.2885,37.5405,4.2521
La2TmGa2,29.6941,24.1545,-5.5396
InRe2Hg,25.7115,28.1979,2.4865
Ca4Y3TmTe8,29.1158,25.6279,-3.4878
Ag2GeBr4,16.5111,15.2703,-1.2409
Zr2Re2C3,77.01,61.2659,-15.7441
YLuMnRh,48.6621,42.7469,-5.9151
Zn2GaIr,20.6709,18.3983,-2.2726
Si2HgBr,10.9682,7.6035,-3.3647
EuPaIrPd,38.7458,42.7346,3.9888
ZrFeSbS2,59.6274,44.9632,-14.6643
Tl2Ga2Sn,27.899,29.155,1.2559
Sr3BiC,30.909,27.9363,-2.9727
Ca2MgIO6,21.2223,18.7903,-2.432
TcRh2Pb,61.212,52.1222,-9.0898
ScHgBr3,8.9313,7.3437,-1.5876
Y2MnVNi,97.0787,79.7607,-17.3181
As2Cl,7.1297,7.4284,0.2988
K2RbBr,8.6081,8.5214,-0.0867
YThTiIn,43.488,40.4627,-3.0253
Pm3(Sm2Sc)2,21.9345,23.8652,1.9307
NaBeZnP,11.4044,9.1626,-2.2418
Ca2Ce2Tl3,30.0916,31.9279,1.8362
LaY2Tm9,29.6361,29.3109,-0.3252
Li4HfP2,27.2512,19.3132,-7.938
La2Y(TlZn)2,34.3807,29.6198,-4.7608
LaY(ScTl2)2,34.5563,34.137,-0.4193
ZnGaIr2,29.4723,28.757,-0.7153
Mn2CdC2,62.4145,49.4499,-12.9645
LaYTlAu,40.3536,38.1067,-2.247
HfP,63.5449,48.2528,-15.2921
YNb2PdO,78.9188,65.0787,-13.8401
BaNaSr,12.8945,12.1158,-0.7786
AsPdRu3,18.3093,18.4014,0.0921
Zn2Ga2Ir,15.1659,13.9609,-1.205
Na(Ga4Ir)2,16.1235,17.0828,0.9593
Sr2SbPb,30.4673,27.7258,-2.7414
AlIn2Ir,21.614,24.3714,2.7575
CrSbP,50.4295,41.2902,-9.1393
AlHgB,0.0,1.7918,1.7918
Pu2PaGa2,36.3256,40.5512,4.2256
BaSrCaSm,12.7756,12.9304,0.1548
AsCl,0.0,0.0,0.0
YBiPd3,24.9052,25.2921,0.3869
Ga2BiPb2,35.398,36.5628,1.1648
RbSbPb2,34.5837,33.6237,-0.96
EuIn2Ir,20.772,23.5891,2.8171
AgBi,39.9652,38.752,-1.2132
Ce2Ga2Pd,15.1784,16.8404,1.662
GdNi,20.1164,22.0021,1.8857
Zr2Zn2I,42.664,35.6335,-7.0305
Ga2PdPt2,46.3334,33.7761,-12.5573
NaSr2Tc,34.1476,31.3218,-2.8258
Pa2Ga2Pd,31.1433,33.801,2.6578
YNiPd2Pb,51.1914,47.1435,-4.0479
Cd(CuSb)2,24.7775,21.1142,-3.6633
Ta3Pt5,69.0539,52.216,-16.8379
Nb2CuBi,86.561,74.881,-11.68
NaMnAu2,55.9457,52.8334,-3.1122
Cd2CuSb,22.607,20.7859,-1.8212
Pm2ErGa2,14.0928,17.8691,3.7763
Ac2PmGa2,33.7377,36.4231,2.6853
RbAl2Se,11.0856,10.1986,-0.8871
PaTl3,55.1798,56.8142,1.6344
YTaPd2W,40.6372,36.751,-3.8862
CaSbRuPb2,35.4703,33.5994,-1.8708
Cs2LiF2,7.6383,8.4284,0.7901
Zr2(ScIn)3,35.4395,29.4413,-5.9982
InAg2Ru,25.3488,23.3867,-1.9621
GaHgPbAu,27.0699,28.2701,1.2002
CaCuMo2,22.888,13.6621,-9.2258
CaCuMo2,22.7582,13.6621,-9.0961
SrCoI,4.2933,7.0745,2.7811
In2AgRu,22.3048,22.613,0.3081
In2SnPb,25.4542,27.8489,2.3948
Tb3Sc3In2,17.8199,18.3918,0.572
NaCaAlSn,13.2796,13.5323,0.2528
AlSnPt2,50.1965,37.052,-13.1445
Ca2La2Cd3,24.2246,19.7318,-4.4929
CsNa(AuF4)2,16.7907,15.1448,-1.6459
Sr(TeAu)3,36.6835,36.4448,-0.2386
Hf2Tl2Ge,73.6931,58.9146,-14.7785
NaScBeBr2,15.6639,11.9795,-3.6844
Pm(ThGa)2,28.7816,32.7852,4.0036
RbCoGe2,3.7482,4.9338,1.1856
Rb2MnCo,25.537,20.7347,-4.8023
RbSrCaCo2,13.8354,10.0336,-3.8018
YTl2Pd,42.0977,40.2804,-1.8173
YTiVP2,46.1063,35.6817,-10.4245
K2SmCuCl6,3.0753,4.675,1.5997
Sc3AgO,52.7312,47.7808,-4.9504
FeReTc2,67.4647,61.458,-6.0067
EuHoCuPb,28.671,31.1911,2.5201
CaBeSn,7.9675,6.5207,-1.4468
CdSbP2,14.2134,14.1759,-0.0375
Rb2RuWI6,29.6005,27.3003,-2.3001
AcYRh4,45.1684,37.0586,-8.1099
AgGeIr2,26.2974,30.1108,3.8134
RbRe2Sn,21.1275,23.3741,2.2465
CeFeSi3Ir,12.0404,11.6391,-0.4013
Na2BiOsO8,11.8305,13.307,1.4765
Sr3Co5I12,6.3186,7.8446,1.526
ZnCdSb3,32.8309,26.6318,-6.1991
InIrRu2,28.4644,27.6273,-0.8371
ZnCd2Sb,22.8525,20.968,-1.8845
LaYAs2Rh,28.1442,21.8584,-6.2857
TiNi2Pd,12.3739,12.9293,0.5554
Ag(GeIr)2,27.3123,28.0931,0.7808
Sm3(YTl)2,28.9814,30.8528,1.8714
CaCu2Sb,17.5734,14.8401,-2.7334
EuSnRu,0.0,2.6824,2.6824
ScCoS2,33.3941,30.3326,-3.0615
NaCr(ReO4)2,21.6628,19.1943,-2.4685
Eu2ZnIr2,32.9873,32.0693,-0.918
Sb3W,37.5774,30.8797,-6.6977
CeMnNi2,62.265,55.5918,-6.6732
Sc2Al4In,8.2654,8.0892,-0.1762
RbHfCo3,35.0286,26.8113,-8.2173
CaYPd,23.3192,20.5333,-2.7858
Rb3HfCo,32.9611,23.3482,-9.6129
Pm3SbPd,27.4646,27.0459,-0.4188
Y2NiPtO6,29.5673,25.0441,-4.5232
Ca2SbW,25.4046,23.7846,-1.62
NaTmSbAu,36.2202,34.3795,-1.8407
ScTaO4,38.0998,37.2843,-0.8155
CaSbW2,33.943,33.3857,-0.5573
Ta2Ni2Mo,24.8149,26.147,1.3321
ZrSc4Cd5,21.2093,20.7852,-0.4241
ZrScCd,40.7878,35.8817,-4.9061
CaRe2Pb,29.6867,34.5122,4.8256
LaY2Rh,31.7103,25.574,-6.1363
LiHgRh2,26.9363,20.0161,-6.9202
KTa2Ag,30.207,30.479,0.272
CoB2Sb,15.5396,14.127,-1.4126
K(SiTc)2,39.1738,33.2088,-5.9649
YFeRh,24.2068,20.3261,-3.8806
SrReOs2,43.3134,42.2977,-1.0157
NaRe2Au,34.0265,37.1162,3.0897
Cs6RbAuF,22.0727,21.8356,-0.2371
Nd3(YRh)2,28.0546,25.1216,-2.933
NdYRh,28.7204,26.2869,-2.4335
BaCaRe2,29.1921,28.623,-0.5691
NdYPdRh,34.253,28.9312,-5.3218
Ba2Ge2W,12.1874,13.6681,1.4806
NdYPdRh,34.2839,28.9312,-5.3527
LiTmHg3,5.8184,7.1244,1.306
CuMoAsBr2,21.2679,16.3979,-4.8701
PRuCN,37.9491,30.7167,-7.2325
PrY2Rh,18.5906,17.0827,-1.5079
GeIr2O,17.7803,22.4038,4.6235
Cr2TcRh2,33.1937,26.6444,-6.5493
YMnCoP2,42.7648,34.2311,-8.5337
GaPS2N,39.6483,29.2329,-10.4154
SrPr2SmAs4,9.817,10.2907,0.4737
SICl2,20.4329,16.6818,-3.751
Mn2Al2Ge,44.9177,37.0908,-7.8269
Li2AlSb2,17.473,13.6789,-3.7941
Nb2As2Se,74.5916,63.7967,-10.7949
Tm7(PtPb)2,44.6266,40.9049,-3.7217
Hg6S4Br3Cl,16.4397,12.2391,-4.2006
U3CuN,32.8984,38.7504,5.8521
Cs8Au5F,30.8419,31.4979,0.656
Sm2Y2Tl,20.5989,23.6599,3.061
LiYIn,13.1287,13.1149,-0.0137
K2AgI4,20.2198,19.2075,-1.0123
ZrAgPb2,58.7038,52.8643,-5.8395
Tl3AgSb,46.2606,43.0581,-3.2025
TaOs2Pd,25.7086,32.2333,6.5247
Ti2V7Tc2,99.8849,78.4995,-21.3855
Ca2Tb3Pd2,17.4112,19.5397,2.1285
Sm2YTlO,37.024,35.5365,-1.4875
SmYTlOs,39.0409,38.271,-0.7699
Na2SrTeSe,29.8904,25.4882,-4.4022
PrPuSc2,19.5039,22.0448,2.5409
Ca2MoRuPb,20.703,20.9867,0.2837
NaSmGdAl,20.4281,21.3855,0.9574
PuPS4,50.3528,43.1356,-7.2172
CsSc2Mo,22.3521,22.6625,0.3104
SrNbAu,66.0393,57.8564,-8.1829
Sc4TaMn,62.7202,52.9665,-9.7537
Mo2As,4.9705,10.5085,5.5381
SnPt4Pb,71.7155,52.744,-18.9715
Cu3As,3.4401,6.226,2.786
Zn2HgS,15.9237,12.7566,-3.1671
NaCaCuS2,31.4556,22.9584,-8.4972
PmY(MoN2)2,26.8778,25.2223,-1.6555
K2IrSe,29.2152,26.8752,-2.3399
Sr3NbAu,46.3185,41.3488,-4.9697
SrPmAu3,31.2242,34.1929,2.9686
Sc12NiSn6,20.1228,16.5497,-3.5731
AcPm2TaO8,10.7814,13.6841,2.9028
Cs8Au3F2,26.3403,26.3522,0.0119
Ca2Ac3Pr2,28.6495,29.9391,1.2896
Ta3NbTl2O12,18.8981,20.9063,2.0082
CdSb3Ru,34.3685,28.4497,-5.9188
Tb2Y(TlTe2)3,38.2928,37.9109,-0.3819
LiEu6,25.3361,25.8662,0.5301
BaLiHg2,2.4215,2.3395,-0.082
SrPtAu3,44.4861,40.7823,-3.7038
CuPPb2Br,35.0154,31.4143,-3.6011
SrTlP3,15.5542,16.4239,0.8696
Ca2Th2Rh3,40.6964,36.2227,-4.4738
Tb4Y2Tl3O2,38.8319,37.2715,-1.5604
Ta2SnPt,37.9607,36.1575,-1.8032
Y2PuTl3,41.7864,44.0906,2.3042
Si3SnRu,22.6221,15.015,-7.6071
CrOsRu,26.8914,26.9973,0.1059
SrSn3Pb,25.7236,26.2742,0.5506
Y2ZrPd9,28.7917,26.3233,-2.4685
V7(MoRh)2,93.8312,73.7572,-20.074
Ti2IrRu,20.9728,21.0188,0.0459
SrTbHg3,5.4654,7.5978,2.1323
Nb2V7Mo2,110.6858,87.2252,-23.4606
Sr2SiCl,29.8949,26.2424,-3.6525
TlCd2Ag,29.1662,28.6015,-0.5646
Mn2Al2Co,52.6819,41.1475,-11.5344
Mn(InSe2)2,46.965,40.0935,-6.8715
PdW2I,30.4497,33.6794,3.2297
CaCuSb,20.8449,17.6451,-3.1999
MnInSe2,53.5277,45.1343,-8.3934
PuInSb2,45.0772,41.2661,-3.8111
Sc2TaMn2,84.861,70.252,-14.609
MnInSe2,53.8327,45.1343,-8.6983
MnInSe,56.2949,47.2796,-9.0153
CeSc2Pb,21.6666,24.0146,2.348
Sc2TaMn,91.0286,77.3992,-13.6294
BaSr2Tc,30.5856,28.6896,-1.896
Mn2Al2Co,45.5909,41.1475,-4.4434
V7(TcMo)2,101.364,81.2386,-20.1253
PRu2AuC,31.2642,28.4412,-2.823
KRb2HgCl6,1.1073,1.9989,0.8916
Na3TcBr,36.1351,29.9753,-6.1598
KRb2HoCl6,1.8254,3.9181,2.0927
KTl2PtCl6,18.7447,16.8553,-1.8894
Ti2PdRu,3.1757,9.4574,6.2817
YHo2Pb9,45.0354,46.2553,1.22
PuNiRu2,27.5764,30.9233,3.3469
BePRh,18.1713,15.4978,-2.6736
Cu(SbP)2,24.6553,19.9158,-4.7395
AsPd2C,27.4539,24.4763,-2.9777
GdTeAu4,43.0171,44.4218,1.4047
YPaIn,28.9107,32.6806,3.7699
CeYInOs,26.2463,27.9657,1.7194
SbTe2PtBr,53.6572,43.8817,-9.7755
TeAs2PtBr,34.5696,27.7317,-6.8379
Sc(Pd2Au)3,21.615,23.6873,2.0723
LiCe2YIn4,19.3891,19.5684,0.1792
SrAc3Tc,55.2518,56.9296,1.6779
BeP2Rh,15.4513,12.3658,-3.0856
Ta3OsW,76.551,67.0436,-9.5074
Ca2Tb3Pt2,37.652,30.6721,-6.9799
Sm(DyGa)2,14.3496,17.7868,3.4372
Tb3IrPt,35.079,32.9596,-2.1194
La2ScCrS6,41.5691,30.695,-10.8741
Ni3Pd7,14.4004,16.1842,1.7838
Zr3TaSb,76.0578,61.6358,-14.4221
TbDyHg3,7.797,10.6881,2.8912
Tb2PrTm,19.9103,22.9891,3.0787
SnSbW2,29.7613,32.73,2.9687
Pr2Ga2Au3,18.719,19.7038,0.9848
K3Na6Pb,22.1046,19.1884,-2.9163
K3GaSn,13.4484,12.8339,-0.6146
Si3NiS,21.8722,14.6678,-7.2044
Cs2BAuF6,13.0546,12.3677,-0.687
Y5ThIn3,17.4611,18.8228,1.3617
ScTi3S,24.3718,23.2181,-1.1537
FeTc2Te,57.2537,51.0421,-6.2116
K(GaSn)2,10.9273,12.495,1.5677
LiAlSb3,30.3162,23.1409,-7.1753
Y2UIn9,24.247,23.9849,-0.2621
TbHgPb3,33.5602,36.3106,2.7504
TaCuO3,0.3228,3.5943,3.2715
AlCd2Mo,16.2593,16.441,0.1817
Tc2PtBr,72.9869,60.1591,-12.8278
TcPt2Br,71.8989,56.3698,-15.5291
AlCdMo,19.3454,17.7858,-1.5596
TiRuO4,6.5812,6.7897,0.2085
Tb2ScCrS6,36.2757,29.3429,-6.9328
La2YRhPb,43.266,33.5874,-9.6785
AlCdMo2,17.6901,16.0609,-1.6292
LaYPbAu,40.7189,38.6698,-2.0491
ScNbMo2,53.2339,48.7814,-4.4525
LaY2BPb,63.2624,52.9871,-10.2753
CrRuPb,26.5155,21.8104,-4.705
Na(TcC)2,59.8161,47.2466,-12.5695
SmUTl2O8,15.2793,17.8158,2.5365
LaYPb2,42.1702,39.5149,-2.6553
CeY2(MoN2)3,30.3832,27.4036,-2.9796
Li2AlRh2,17.7369,12.6018,-5.1351
Rb2BaMnCl6,6.7811,6.5013,-0.2798
Tl2InPt,52.798,47.6964,-5.1016
ZrAlPt,62.6878,47.4823,-15.2054
LiAlRh4,35.1943,25.281,-9.9133
SrNd2IO8,11.6713,11.6787,0.0074
P2RhAu,25.7741,23.3953,-2.3788
NbSn2PbSe,57.3201,50.1177,-7.2024
PRhAu2,37.0858,34.7377,-2.3481
P2RhAu,26.0508,23.3953,-2.6555
Tb(YCd3)2,18.4929,19.5603,1.0674
YPd2Pb,33.5905,32.389,-1.2014
Zr2AlPt,65.4118,50.5866,-14.8252
PaTiO4,0.079,7.2554,7.1764
Na(TaC)2,36.8199,32.3109,-4.5091
Ac2YSn4Pd3,47.2723,42.4159,-4.8565
ScV,41.1789,30.4899,-10.6891
CaEu2Ni,20.1741,19.5231,-0.651
CoHg2S,13.7302,11.5044,-2.2257
Hg2Pb2S,30.0912,28.0555,-2.0357
TbPm2YIn4,17.4568,18.9479,1.4911
YTm2Ru9,19.7398,20.9631,1.2233
ScCrSiS2,42.3456,32.1125,-10.2331
Nd2YEr9,27.3101,28.9194,1.6093
ThCoAu,28.626,34.9599,6.334
ThCoAu,40.9255,34.9599,-5.9655
ScCr2S,22.0746,20.6195,-1.4551
V(HRh)3,33.5711,23.4578,-10.1132
NaPmYTl,28.4259,29.3437,0.9179
Te3Rh2Pb,40.8625,36.6584,-4.2041
CoTe2Rh,34.7645,31.4652,-3.2993
Cd2OsW,94.1843,75.733,-18.4513
Ho3TePt,36.7322,33.719,-3.0132
Li2Si2O,19.1115,14.7782,-4.3333
K2MnSnS4,41.0084,31.481,-9.5274
K2SmMnS4,40.4568,32.088,-8.3688
PmY2TlO,34.7466,33.2371,-1.5094
CoTe2Rh,35.0838,31.4652,-3.6186
Ti3GaCu,1.3632,4.0543,2.6911
U3SnO8,32.466,30.7264,-1.7396
Te3RhPb,46.8505,41.561,-5.2895
GdGa4Ru,6.9368,9.2484,2.3116
Zr2USn,71.5605,63.5827,-7.9778
PmY2(TlSe2)3,39.7941,36.0643,-3.7298
Cd2GaAg2,15.5977,14.8086,-0.7891
UMnCoSn,49.5418,46.6444,-2.8974
NaGdAgPb,34.2082,32.965,-1.2432
USn2Hg,27.3861,29.1581,1.772
Rb2MnCuCl5,9.5627,7.7565,-1.8062
PmY3Tl2S,36.0672,35.6012,-0.4661
Ni3PI,20.1623,17.3238,-2.8386
USnIr2,43.7792,48.1744,4.3952
USn2Au,39.1953,41.2091,2.0139
PmY3Tl,17.8817,21.3851,3.5034
U2InSn,44.5739,46.9083,2.3344
ZrRuO2,34.5343,29.6247,-4.9096
Y3ErRu3,24.5297,19.8191,-4.7105
UTiSn2,37.6344,33.4978,-4.1367
CaPrRu4,20.0507,21.3092,1.2586
Sn2(BiPb)3,41.6885,45.3209,3.6324
In2GaAg2,22.1982,20.3993,-1.7989
Pr12Al2In5,3.8055,3.6338,-0.1717
Sr3HfTi,39.9557,31.3622,-8.5935
MoAsRhBr2,20.3573,17.6596,-2.6977
CaBe3Sn,16.9585,11.2278,-5.7307
YThPt2,63.6492,51.2669,-12.3823
Eu3(Cu2Ge)2,17.006,15.8693,-1.1367
SrPPd3,0.0,4.4064,4.4064
TmPuO4,4.9772,10.4792,5.502
Y8Si3GeSe4,32.9088,27.8373,-5.0715
Tm3TePt,38.2196,35.3154,-2.9041
Tb3(PmCd)2,23.8596,26.5076,2.6479
LiTlP2S,28.8885,26.6514,-2.2371
GaCu3C,21.0,16.2952,-4.7048
Sc2Cd2Si,22.127,20.8946,-1.2324
GaAgAu,28.9124,28.1562,-0.7563
CaCoRh2,30.8809,22.5875,-8.2934
ScAgSb2,32.9859,26.8159,-6.17
CoRhI3,25.7794,22.831,-2.9485
GaAg6Au,30.5197,26.7702,-3.7495
Y6Ge2NF,25.0817,22.5732,-2.5085
Gd2InTc,42.7306,41.0462,-1.6844
AcSmYTh,42.4043,45.8823,3.478
CaAl4Pb,11.7342,13.1632,1.429
Pm8P3CS4,30.0239,29.5983,-0.4256
NdYZnIr,25.9038,25.2928,-0.611
UMn6,66.7905,54.6066,-12.1839
HfTi3Co,64.6455,48.5793,-16.0662
Pr2(YSe2)3,27.8748,23.6523,-4.2226
Pr2Sn3Rh5,22.8059,17.593,-5.2129
BeCd3Si,24.0704,21.5818,-2.4886
Re2SiPb,29.9821,31.9338,1.9517
K3Cr11S18,35.3024,26.4146,-8.8878
KCdF3,0.0,0.1797,0.1797
PrNdY2Th,17.9743,20.5584,2.5841
Be2CdSi,20.8874,17.6595,-3.228
LiPmYAl,25.481,22.7663,-2.7147
K3Tc5N12,3.1857,0.0747,-3.111
Be2CdSi,20.7432,17.6595,-3.0837
Pm2TcI,41.0876,39.9971,-1.0905
Sr2AgMo,15.9301,16.8574,0.9273
LiTh2Ru,37.0707,41.3985,4.3277
ScBe2Si,23.0029,20.1202,-2.8828
CaYNb3,94.3929,75.4865,-18.9064
BeP5,4.1489,5.2879,1.139
BeCdSi2,23.5748,18.9616,-4.6132
Sr3AgMo,18.2059,17.5511,-0.6548
CaMg2W,12.7826,12.9552,0.1726
SrAgMo3,21.0944,20.2612,-0.8332
ScCuRhPb,43.7255,37.4099,-6.3156
NaLaPb2,45.0085,40.7837,-4.2248
SrAg2Mo,23.5131,21.7703,-1.7428
AgMoPt2,56.3793,43.4974,-12.882
BeCdSi2,23.5253,18.9616,-4.5637
ScBeSi2,36.5261,30.1874,-6.3387
Ag2MoPt,41.9123,33.0221,-8.8902
BeCd2Si,24.7448,22.1191,-2.6257
BeCd2Si,24.7535,22.1191,-2.6344
Pr2GaBr2,6.5184,6.3338,-0.1846
NaAlZnAu3,26.4582,27.6468,1.1886
Mn2VNi,101.5078,84.4246,-17.0832
CaBeP,21.4202,18.4796,-2.9406
TmHfSe3,43.4831,34.0143,-9.4689
CsNaZn,18.9809,17.6423,-1.3386
Hg2BiS,27.8499,24.5386,-3.3114
TiNbRu2,44.2482,41.5905,-2.6577
SrAgMo,20.8399,20.7032,-0.1367
CeNi3,6.5148,8.2092,1.6943
CsBi3Rh,47.5397,44.9181,-2.6217
SrCr2As,9.6353,6.6557,-2.9796
CaBe2P,17.1594,14.5397,-2.6197
Lu2TlPb,42.3665,44.6306,2.2642
NaNdBiSb,36.701,34.6796,-2.0214
Ta6Al8O27F,5.8524,6.4162,0.5637
Pr3AlIn,0.0,0.0928,0.0928
Al3In3Au2,20.3613,21.3487,0.9874
Sm2GaBr2,15.0555,17.0198,1.9643
Ca(GdI4)2,21.2509,21.9234,0.6725
AlPb2Se,39.1627,37.7237,-1.439
Sm2YPb,28.854,31.3644,2.5104
Sb4Pd2Rh,38.4439,30.2966,-8.1474
AlIn2Au,22.5222,25.3151,2.7929
SrTl12Hg7,30.9992,31.5245,0.5254
Na2Si2Sn,18.6209,13.3461,-5.2748
NaTmSnIr,29.4558,31.4557,1.9999
AlInAu2,29.2666,32.3334,3.0668
Pr3(YTl)2,17.5195,18.3897,0.8703
Al2In2Au,15.7678,17.6689,1.9012
ThSc5Al4,11.1873,12.7342,1.5469
Mg4(BiO2)9,15.3095,16.4477,1.1382
SbPdRh2,40.4879,31.0879,-9.4
SbPdRh3,43.6967,32.3147,-11.3819
Sb2PdRh,39.7962,32.1131,-7.6831
YAs2Pd7,18.738,18.9252,0.1871
Al2GeI,18.8413,15.5638,-3.2775
Pr4Y3Tm4,14.3525,15.6272,1.2747
LiBe2P,6.7839,5.0796,-1.7043
DyMgBi,27.9402,30.0675,2.1272
LaPm(ScHg2)2,11.3728,9.6626,-1.7102
LiBe2P,6.5019,5.0796,-1.4223
Pa2GaGe2,31.964,34.9372,2.9731
Cs2Th(AuSe2)2,43.5862,40.2148,-3.3715
BeC,26.0343,12.5458,-13.4884
LiBeP2,7.8536,4.9416,-2.912
Zr2CrBr,68.0668,56.0444,-12.0223
SrZrBr2,35.0576,30.5965,-4.4611
Tb2ErScBi5,40.1152,41.4856,1.3704
NaSrFeNi2,32.8157,23.5984,-9.2173
Ni8Ge,8.427,9.3362,0.9092
Zn2SbRu,15.8513,16.7082,0.8569
TbY2Al,29.3093,26.1005,-3.2088
BaPI,9.9023,8.1856,-1.7167
BPbW3,34.4012,38.1872,3.786
Cs2YPI6,24.9895,23.5957,-1.3938
YTi2CoN,66.556,53.2276,-13.3284
Sn3Hg12S5,12.0602,8.8247,-3.2355
BeC,16.5316,12.5458,-3.9858
CdSb2Te,37.9439,32.2562,-5.6877
TbY2AlO,37.6703,31.659,-6.0113
CeYMnAl,50.4292,42.6028,-7.8264
TaSb2As,34.0982,30.9591,-3.1391
TlCdSb2,40.0263,35.428,-4.5983
AcYO4,23.5938,23.352,-0.2418
TbYBeAl,26.8295,23.4903,-3.3392
ZrFe2Ru,38.3205,29.774,-8.5465
Li3FePb,24.8464,21.9762,-2.8702
CoReTe2,32.7476,32.7768,0.0292
Pm2DyPd,23.5,26.4574,2.9573
Ag3IrI,33.0656,29.493,-3.5727
K2(TcS2)3,39.27,29.9673,-9.3027
Mg3(Zn2Bi)2,17.3201,17.4082,0.0881
Cs3Rb(CuBr3)2,14.0273,13.393,-0.6343
Li2FePb,30.4702,27.401,-3.0692
Hf3MnNi,128.4661,96.733,-31.7332
AgPI,18.5513,16.1246,-2.4267
Y2NiOs3,63.1068,58.6815,-4.4253
NbCu2Sn,61.756,54.066,-7.69
TmSbRu,9.8116,13.1884,3.3768
LiAgMo,16.9005,16.2751,-0.6254
LiCaLa4,35.7291,23.7717,-11.9575
CsRb2ErCl6,2.1921,4.3201,2.128
CsRb2TmCl6,2.3299,4.5389,2.209
AgHgMo2,15.8891,16.4215,0.5324
Ca4Co2I,12.0085,10.4029,-1.6056
CaZrBe2,35.6558,27.3794,-8.2764
BaTe2I,27.0555,26.2392,-0.8163
Ca2YPd5,17.8035,17.6366,-0.1669
Y3BiC,31.2258,31.4511,0.2253
HoCo4Ir,15.9179,19.2579,3.34
Ca2MgCu2,7.6661,6.0384,-1.6277
Rb2LaYBr6,12.2723,10.7388,-1.5335
BaTe2I,26.3774,26.2392,-0.1382
Sr2Tc2Br,42.0669,37.6953,-4.3717
Pr2YTl,10.3278,12.295,1.9672
Li3MnRu,24.6127,21.1585,-3.4542
BaAlTe2I,29.6942,25.8774,-3.8168
Sr3TaAs,28.276,21.2925,-6.9835
TaPdO2,27.8184,27.6863,-0.1321
SrMgBiH2,12.788,13.4011,0.6132
KYSc2,5.6852,8.0296,2.3444
Ti3CoRh,45.6828,35.0447,-10.6381
Li4MnRu,19.914,18.3435,-1.5705
Li(HPd2)3,10.9554,11.7186,0.7632
Pu3TcSb,58.9856,56.855,-2.1305
AsW2O,23.9737,24.2897,0.316
Hf7Bi,132.5933,95.8909,-36.7024
TaPO,15.2812,14.8501,-0.4311
Tc(RhPb)2,53.7732,47.0281,-6.7452
CaEuPb2,34.1949,36.1501,1.9552
SrEuCl,25.4322,26.6796,1.2474
EuPaCl2,24.9882,26.9955,2.0073
Sr3SnRu,15.6217,16.7413,1.1196
NdYAlRu,29.3253,27.4007,-1.9245
Na2NbC2,63.1485,49.0066,-14.1419
CaPr2Y5,6.1747,6.251,0.0763
PaZnO4,12.9795,14.2182,1.2387
PrY7Er3,16.9175,18.6008,1.6834
YCuC,24.6358,18.9553,-5.6805
PrTm3Ni8,13.4364,14.727,1.2907
Sb2PtRh,51.4669,38.0168,-13.4501
CaFeCu2,25.4208,20.2268,-5.194
Sr2TaBr,28.8013,23.5314,-5.27
YCrAg2,37.2278,29.439,-7.7888
YHf3Au,100.1004,74.9505,-25.1499
TaCuBr2,19.8464,20.7287,0.8823
Sc2Fe2Br,30.6691,28.6161,-2.053
LiLa3Sb,40.0147,27.3323,-12.6824
Ga2TcSe,35.5221,31.6095,-3.9125
CaMnPH2,32.1262,26.1471,-5.9791
NaPrSmOs,27.0399,25.598,-1.4419
Pr2PuBi4,39.6293,41.6405,2.0112
Cr2Fe2W,19.8256,16.933,-2.8926
GdAgAs2,12.1107,13.822,1.7113
Th7In,60.2313,62.1084,1.8771
Ge2P2Au,10.5484,12.2681,1.7197
Cs8Au4F,29.6214,30.0137,0.3923
TaTcIr3,41.6421,45.7064,4.0643
Zn2NiIr,20.0568,18.4465,-1.6103
Fe2NiAu2,32.7043,29.0968,-3.6075
La2YGe3Pt4,50.2334,34.4322,-15.8012
InSe2,38.9276,32.7503,-6.1773
Ga(BiPb)2,33.8371,36.1892,2.3521
Y2GaGe4Pt3,35.2328,25.5423,-9.6905
Y2CuGe3Pt4,47.2858,33.6758,-13.61
IrW2I,36.8427,40.4254,3.5826
In3Se,26.7911,25.328,-1.4631
Zr3Mn4,98.9819,80.2695,-18.7124
CaIn2Se,40.4115,36.2994,-4.1121
ZrPaO4,15.2038,17.0645,1.8607
Ca2InSe,39.4933,31.323,-8.1702
Ca2MgSn,7.9144,9.7189,1.8046
ReGe2Ir,33.0648,32.5815,-0.4834
TaCu(PbO3)2,15.9395,16.3961,0.4566
Y4ErSe5,30.8346,26.7101,-4.1244
Ca(SbPt)2,50.4612,34.6832,-15.778
Ga2Si2Ru,10.035,7.2981,-2.7369
NiP2RhS,27.9314,25.6314,-2.3001
Rb2GaPt2,37.9217,26.7174,-11.2043
LaYNiOs,64.801,56.3394,-8.4616
ThMnCl,48.5701,46.3486,-2.2215
Zr3P2,51.4552,42.1033,-9.3519
Rb3HoAl3B12S12Cl,16.4647,11.3714,-5.0933
Rb3TmAl3B12S12I,17.4682,12.0951,-5.3731
K3ScGa3B12S12Cl,21.1918,14.2651,-6.9267
NaZn,14.3853,12.3193,-2.0659
Pr32In3Rh19,14.9552,9.8937,-5.0615
CaYbIn,12.2159,15.5431,3.3272
KOs2Ru,28.9031,32.0828,3.1797
Th4ZrNi10(B2C)5,31.0816,27.5169,-3.5647
LiCo2W,14.5228,16.3284,1.8056
TaBeTe2,33.7154,32.9932,-0.7222
BaCrTc,40.4245,34.8233,-5.6012
Mn3Tl,80.5919,67.0755,-13.5164
Cs(GaGe)3,7.4629,8.7982,1.3353
AcUTe3,32.6612,36.6141,3.9529
Ti2Sn2Bi,29.631,22.3112,-7.3197
Ca2ScRe,35.9371,30.4331,-5.504
Cs3NaNi,21.5028,20.8335,-0.6694
CsNa2Ni,20.5276,18.7581,-1.7695
Ta2CdTe,34.1265,35.8477,1.7212
V6NiAs2,92.7542,71.8364,-20.9178
MnGeCl2,24.5143,22.1913,-2.323
PaGaFe,22.2648,24.4647,2.1999
K2CaRh,19.6589,16.51,-3.1488
SrTmAg2,26.4051,24.8507,-1.5543
ScRe6,48.7613,46.5737,-2.1876
CaScRe2,44.8574,39.092,-5.7653
MnAu4Cl,48.9937,47.0386,-1.9551
CeHfNi4,39.1923,31.0012,-8.1911
Al2Mo2Rh,17.5101,13.8809,-3.6292
KAg2Br,21.2094,18.3866,-2.8228
AlInSe3,12.3364,24.9207,12.5843
Rb3HfBe,31.6016,21.9468,-9.6547
Rb2SbAuCl6,10.9833,10.3546,-0.6287
NaLiYAu,21.3275,21.5383,0.2108
AlIrRh2,35.7563,31.3038,-4.4525
Rb2TcICl6,13.4255,12.4365,-0.9889
Rb2TcAgCl6,10.5121,9.4745,-1.0376
KCrAuS2,30.7711,25.2566,-5.5145
LiAcSmBi,35.8441,38.5236,2.6794
Ca2Ag2Sb,24.4331,19.9209,-4.5122
MnAlSe2,49.3616,40.3988,-8.9627
Li2HfCu,38.2294,29.1832,-9.0463
Ti(NiRh)2,19.0252,14.7057,-4.3195
AlSeBr,20.348,19.6412,-0.7068