Formula,E_hull_DFT (eV/atom),E_hull_ML (eV/atom),Delta (ML - DFT)
Ca2CI2,22.9288,19.7592,-3.1695
Ag7As,28.7566,23.5573,-5.1994
ErSc4Bi5,31.5861,33.351,1.7649
ErTm3Au4,37.9297,39.7663,1.8366
PrScSn3,13.2359,12.8249,-0.411
CrTePb,35.0514,34.3717,-0.6797
CsNaBeMo2,22.8363,17.9873,-4.849
CsInCo2NiGe3(O5F)2,15.9891,13.9074,-2.0816
Hf2ScF,68.0534,50.0527,-18.0007
Na4EuPb,29.854,27.1574,-2.6966
YHg2P,17.8941,13.4479,-4.4462
CoTe2I,24.9011,26.3316,1.4305
Tl2CdAu,42.0664,42.952,0.8856
SrTl(AsO3)2,3.7143,4.067,0.3527
AlPtBr2,30.2935,24.4432,-5.8503
ThInBi,41.8304,46.7578,4.9274
Pm2TmNi2,12.868,17.5557,4.6878
Y3C4,56.3662,42.0214,-14.3448
BaSc,2.9896,5.5845,2.5949
Ac(Tc2C)2,79.6113,66.1703,-13.441
BaSc4Si,17.6465,16.2449,-1.4016
Sc3Pa,20.8079,23.6223,2.8144
RbScTc3,89.1166,74.2667,-14.8498
CsV2Cr(AgO4)2,25.6116,20.4882,-5.1235
BaScSi2,25.8765,21.5539,-4.3226
MoW2Cl,27.7393,28.8448,1.1055
SbRu3,15.7549,17.4578,1.7029
Cs2Ba4Ag,11.4862,11.3218,-0.1644
TlSiCl2,18.5015,17.0475,-1.454
HfCo3Se,42.4378,33.473,-8.9648
Na2(NbSe2)3,62.5807,52.0231,-10.5576
Th6P3SeS2,46.2854,47.5266,1.2412
Tb2Sm(ScS2)3,43.8582,37.9807,-5.8774
CuSi2,8.9799,8.173,-0.8069
YHo7Er3,27.5515,29.5259,1.9745
Y3Ga5Te12,16.4386,15.771,-0.6676
YCu2Te2(AsO2)2,19.0008,17.1627,-1.8381
TaCuPt,45.5346,38.7516,-6.7831
CoP2Rh,25.5484,21.5509,-3.9975
TlSiCl2,18.2664,17.0475,-1.2188
PrLu3,24.0116,26.1304,2.1187
Sm6Dy3YHo2,25.2369,26.9392,1.7023
MnAgBr2,38.8319,32.8431,-5.9888
Ta4H3Se8,34.7642,31.5208,-3.2434
CsRb2PrV2O8,21.1943,15.8391,-5.3552
YPdI2,23.7298,22.071,-1.6589
TcP2Au,37.2676,35.5404,-1.7272
Ni2SbRu,23.2406,21.1067,-2.1338
Ba(SbRu)2,18.8504,17.9065,-0.9439
SrGa3Bi,19.4393,20.2219,0.7825
TlIrPb,49.8514,52.4613,2.6099
ZrFeSb2,50.7986,42.1089,-8.6896
KSr2Ga,11.7623,12.6269,0.8646
SrNb2Ga,71.3978,59.9763,-11.4215
Tl2IrPb,49.6575,51.4246,1.7671
SrTiCo2,19.365,17.6485,-1.7165
TlTeIrPb2,48.2979,48.7506,0.4527
SrTbGa4,11.8496,13.4498,1.6002
Tb2Sc2Se2S3,43.6264,38.0964,-5.53
ScPd3,17.9849,17.8928,-0.0921
SrGa3Tc,22.3773,24.4436,2.0663
Pd3IO,29.566,26.4429,-3.1232
PrLu2Ru,33.1618,34.4636,1.3018
SrGaGe,10.4441,11.8449,1.4007
SrGaSe,19.9168,18.3241,-1.5926
La2Y3Cd4,20.5885,18.3506,-2.2379
TiSiO4,1.0935,2.4354,1.3419
SrNi2P,15.9844,16.2162,0.2318
CsKLaNbO5,23.0062,20.9976,-2.0086
TiAlO,0.0,0.6407,0.6407
SrNd2Pd,19.8651,22.8584,2.9933
Pr2SbC,17.378,15.5824,-1.7956
InTeW2,35.7413,38.2044,2.4631
AcNdSn4,23.4704,26.2867,2.8163
MnAgBr2,38.2358,32.8431,-5.3927
LiTcMo2,23.9986,26.5068,2.5082
Re(NiPt)2,61.6232,43.1333,-18.4899
Sr5InGa5,11.33,12.3517,1.0217
AcPmSn4,23.5085,26.5976,3.0892
SrGaRe2Pb,39.3186,36.83,-2.4886
InRhAu,38.6811,36.086,-2.595
BeAs,13.0195,10.1111,-2.9084
SrScGa,4.8695,8.2611,3.3916
SrHo2Ga,19.6309,22.0442,2.4133
Y6Ho3Er2,20.9158,22.4647,1.5489
U(NiRh)2,28.5428,25.7672,-2.7756
SrMgTlCr2,19.5237,17.6953,-1.8284
InRhAu,38.6583,36.086,-2.5722
SrScGa,4.7166,8.2611,3.5445
CeTaOs2,36.0378,41.3541,5.3163
Ba2SmGeSe5,24.1163,20.5603,-3.556
HoSiNiC,20.0993,17.7366,-2.3627
SrSc2Ga,8.1142,10.3737,2.2595
DyErCdAg,26.4986,26.954,0.4555
Mn3Tc2,87.3126,73.5449,-13.7677
Nb3AsCl,89.6975,72.3044,-17.3931
CaYCr,37.7316,29.8798,-7.8518
Si2MoRu3,22.1559,17.6106,-4.5453
NaSr5Ga4,12.2653,12.9195,0.6542
Ca3Y5,18.1561,14.4746,-3.6815
Sr2Tl2Ga,24.3897,26.9648,2.5751
Sr(Zn2Pd)4,10.7792,11.9892,1.21
InRhAu,38.8589,36.086,-2.7729
Th2Ni2Rh,16.1138,19.5971,3.4833
SrTa3Ga,67.0782,51.9801,-15.0982
TaCo2Ag,41.4866,34.5439,-6.9426
ScSn3,24.5544,22.8067,-1.7477
Nd2Ni2Ru,9.0099,14.7465,5.7366
SrGa3Tc,13.796,24.4436,10.6476
Ta2GaF,63.9387,51.3995,-12.5393
SmCu4AgH,13.0779,13.7085,0.6306
SrEuInGa,17.0828,19.004,1.9212
Na2Pu(PbSe2)3,46.4608,41.3803,-5.0806
Ce4TlSn,28.3043,30.3145,2.0102
ZnSiCl2,8.1069,7.2234,-0.8835
HoSnAu4,39.2523,41.0264,1.7742
Ba2SmGeTe5,21.5671,21.2069,-0.3602
La3Y2Cd3,29.7943,23.9762,-5.8181
HfI3Br,44.4537,35.9469,-8.5068
LiScCuS2,31.5736,24.3181,-7.2556
Ba2PmGeTe5,21.5349,21.3011,-0.2338
Pu2Ni2Sb,34.4305,35.1642,0.7337
Sr2HgGeSe5,26.4401,21.7823,-4.6578
ZnCoGeN2,56.7962,48.8084,-7.9878
NaSc3Mn,29.1296,26.814,-2.3156
Co(PW)2,101.0944,83.0427,-18.0517
V3AuI,92.8343,74.6003,-18.234
NbFeO2,42.8835,35.0315,-7.8521
Ac2Cu3Si4Pt,30.4565,25.5841,-4.8723
Ba2SrRe,25.9367,22.7836,-3.1531
NaSrIr3,38.8367,35.5995,-3.2373
Y3ZrIr4,38.5606,39.3345,0.7739
Ba2SrRe,26.1147,22.7836,-3.3311
SrGaOs2,20.5432,24.4205,3.8774
Ba2UGeTe5,26.1556,26.4475,0.2919
MnAg2Br,43.6465,37.1192,-6.5273
Sc3Fe7Co2,31.2347,25.9212,-5.3134
Co2AgAs,22.4264,18.2286,-4.1978
CdTcNi2,35.1733,31.0888,-4.0844
SrTl3Ga,34.8529,35.8449,0.992
Pr2TcCl,21.9015,20.4789,-1.4226
Tl2SiP,33.7485,33.1667,-0.5818
Cs2TbBr6,14.4757,16.3764,1.9007
SrBi2W,49.4666,40.2526,-9.214
EuDyErCd,26.0546,28.3256,2.271
Ac3Si2AsPt9,71.2253,52.0903,-19.1351
ScReAgRh2,53.1838,40.0644,-13.1195
ScSbIrRh,43.447,32.734,-10.713
Yb2Zn,25.6572,26.9647,1.3075
BeRe2As,18.9472,21.2649,2.3177
BeReAs2,19.3098,18.6899,-0.6199
KZr2ZnCo,50.7326,37.5998,-13.1328
Li2IrAu,22.9131,24.6545,1.7414
ZnCoBi2Pd,34.1969,30.7895,-3.4074
Cr7Pt,19.1405,15.0034,-4.1371
Na3SnPb3,33.0733,31.9384,-1.1349
LaThZnCo,39.7254,32.3267,-7.3987
Sr(GaBi)2,24.2815,26.3311,2.0496
Co2AsBr,19.8016,11.6162,-8.1854
Cs2Nb(ICl2)2,26.729,24.941,-1.788
Sr2Ga2Bi,19.5365,20.9611,1.4246
In2MoSe,26.1606,24.8318,-1.3288
PmYAg2,25.0337,23.7891,-1.2445
SnBiPb4,47.653,49.2491,1.5961
CuSbAsIr2,31.4033,30.2656,-1.1377
GaAg2Te,28.3869,25.4443,-2.9426
Nb3MoRu,93.9245,77.5839,-16.3406
YZr2Ir,63.3327,54.8417,-8.491
SbPbBr2,45.2453,39.5145,-5.7308
BeSb2Te,33.5825,27.9648,-5.6177
ScBr,4.5829,5.3756,0.7928
Dy4Er4Cd,27.3397,29.6762,2.3365
Na2LaRuO6,13.0435,12.6785,-0.365
Y2HoPuAs4,19.6258,22.1169,2.4912
Mn2SnTePb,64.325,55.2094,-9.1156
Pr4TlSn,10.6784,10.5442,-0.1341
Sb2PbBr,46.4146,41.9082,-4.5063
Er2GaB2Rh5,33.3043,29.0338,-4.2705
SmHoNiPt,36.4287,31.4408,-4.9878
Y2ZrS,45.1562,37.9474,-7.2088
SbPbBr,47.0909,44.9288,-2.1622
NbSiAs2Se,65.7702,55.1533,-10.6169
Y3BiC,17.721,31.4511,13.7301
YTlPb,38.8615,41.0205,2.159
Sr2Ga4Tc,21.6356,21.0403,-0.5953
Y3IrS,28.0734,26.2303,-1.8431
CaY4,16.9983,15.8482,-1.1501
Sr(GaTc)2,43.1604,39.069,-4.0914
Sc5IrPd4,23.091,18.4273,-4.6637
SbPbBr2,45.2599,39.5145,-5.7454
SnSbAu4,42.4247,41.9828,-0.4419
TmSnAu4,39.6532,41.4322,1.779
Th4TlSn,49.4446,53.1041,3.6595
Li2IrPt,33.3517,27.6064,-5.7454
Sb2PbBr,46.3455,41.9082,-4.4373
PrNd2Pu,29.2529,32.552,3.2991
Hf4SnSb,106.8097,78.6228,-28.1869
Dy2Th3Sc7,24.1433,26.6697,2.5264
Y(NbGe)2,57.3995,48.7791,-8.6204
Tl2PRu2,22.2481,24.6212,2.3731
Ac2ZnAsPt6,67.568,50.1005,-17.4675
Tb2HoNi2,13.0549,17.2538,4.1989
SrTlGa2Fe,25.2399,23.2405,-1.9994
Tb(ThNi)2,27.3582,32.5517,5.1935
BaAg(H3Au)2,9.75,9.7983,0.0483
Ac5Ir2PtAu,54.2389,54.4307,0.1918
Ac5IrPt2O,52.9703,50.5807,-2.3896
FeTe2Os,41.5108,36.765,-4.7458
Th2Ni2Te,30.1093,34.1971,4.0878
Ni2BiTe2,30.1721,31.131,0.959
SmY2HoAs4,13.6161,16.3365,2.7205
Li2TlIr,23.7679,26.2482,2.4803
Sr4TlHg,17.0506,18.4129,1.3623
Cr4Ru3,12.1032,14.4317,2.3284
Sm2Ga3Ni4Rh,16.3113,14.9404,-1.3709
SrAc2YSe4,42.9014,38.2289,-4.6725
Tm2Ni2Ir,3.6067,9.8702,6.2635
Cr7Ru,10.0763,10.1358,0.0595
NaSc2Sn,17.6502,16.568,-1.0823
ScPS2Cl,43.3258,35.297,-8.0288
KLi2Au,14.8925,15.0619,0.1693
LaCo2As,27.2523,19.9212,-7.3311
Y2SnAs,24.6981,22.0098,-2.6883
NdZnGaPt3,45.7257,33.3843,-12.3414
Zr2TcRu,75.8717,64.3601,-11.5116
KBaLi2,7.2538,5.8321,-1.4217
Cd2SiCl,14.3193,13.0024,-1.3169
CsKNa14(SiO4)4,14.1861,11.4868,-2.6993
Tb2Th3Sc7,24.0145,26.5341,2.5196
Rb2TeI6,17.322,17.4616,0.1396
YTlTe,35.1121,35.613,0.5009
Y2TlTe,29.4875,30.302,0.8145
Cs2MnSn(AsO5)2,16.2829,14.6452,-1.6376
Ba2CrRu,11.5287,11.111,-0.4177
Ca2HgSb2,18.2963,14.1205,-4.1758
LiFe2,17.0249,14.5792,-2.4457
Na(ZrSc)2,40.723,34.6218,-6.1012
Y2AuS,25.7641,25.6733,-0.0908
HfP2OsS,51.74,43.808,-7.932
LiBeV,39.7077,32.7478,-6.9599
Nd2Zn3Ga4Pt,18.9545,17.1135,-1.8409
PmMgTlRu,30.545,29.5103,-1.0348
PrSm3DyTh,22.1824,25.7873,3.605
Ce2Mg4Sn3H2,12.795,13.2806,0.4855
Y5Tl6Pb,35.2338,36.5249,1.2911
Y5TlPb6,35.903,37.1833,1.2803
Sr2TmMnO5,28.6126,28.6346,0.022
CeY(HoAs2)2,15.4388,17.9223,2.4835
Ac4RuPtI2,53.4454,50.1659,-3.2795
NaScTi,14.4873,18.5157,4.0284
Tb3Tm2Sc7,14.9686,17.0748,2.1061
DyBCl,3.8473,8.8942,5.0469
YTlPb,39.0763,41.0205,1.9442
CsEu2Ni,21.8355,23.5359,1.7005
CePrTl,23.5127,25.8633,2.3506
Pr2ScTaO6,33.0476,27.8659,-5.1816
RbTc3Pt,77.1843,61.3713,-15.813
Ac4As2PtS,51.582,48.1169,-3.4651
EuAl6Cu,6.9229,7.8531,0.9302
Be2AgBr,13.141,10.983,-2.158
P2IrI,21.8008,20.7464,-1.0543
BaCr3P,34.3147,27.2918,-7.0229
Be2AgBr,12.3198,10.983,-1.3368
Cs2NaSr2(MoO4)4,16.1393,14.8413,-1.298
Mn2SbMoC,63.9742,50.9809,-12.9932
Tm2Ni3P2,19.399,18.5807,-0.8182
YTlPb2,42.3754,44.4878,2.1124
BeAgBr2,14.0212,14.1332,0.112
RbTeI3,20.0718,20.1031,0.0313
BeAgBr2,14.2089,14.1332,-0.0757
Rb3TeI6,17.7821,17.6296,-0.1525
La2TiCd,28.378,22.4155,-5.9625
Te2PbI,40.1372,39.7838,-0.3534
Ac4SbTe2Pt,58.2755,54.4943,-3.7812
BeAg2Br,19.7056,16.5893,-3.1163
InW,30.7875,29.5502,-1.2373
PIrI2,27.3315,25.4855,-1.8459
AcSm3Ho,29.7678,33.5888,3.821
K3TiCl6,0.8126,2.0752,1.2625
YHo2NpAs4,21.2813,23.8033,2.522
Ac2SmTh,55.291,58.8445,3.5535
TeMoPb2,43.5556,41.6575,-1.898
YHo2PaAs4,20.8384,23.5148,2.6764
Rb2Te2I,21.2678,20.086,-1.1818
CaYTl,30.2244,27.6419,-2.5825
Sr4CdAg,18.8747,17.2295,-1.6452
Sr2Ag2I,19.3782,18.3176,-1.0606
TmNi3P,13.6957,15.5225,1.8269
Y2BCl,83.7653,75.9453,-7.82
Ac4Ir2PtSe,59.3233,56.6194,-2.7039
KCoW2,26.7101,28.2802,1.5702
VGe2P,32.7034,28.0775,-4.6258
V6GeP,98.3373,77.1446,-21.1927
CdAg2Sb,31.744,26.9099,-4.8342
Fe2SiCl,12.2148,9.8488,-2.366
Sr4TlCd,22.0612,21.7141,-0.3471
Co(PW)2,110.0303,83.0427,-26.9876
Rb2SrReI6,22.0479,20.6403,-1.4076
SmY(HoAs2)2,15.4297,18.174,2.7443
Li2BePt,23.2245,15.8735,-7.351
La2AlZnH,22.4784,16.2352,-6.2432
Ba2CaTmTe4,23.9444,23.6305,-0.3138
Dy2Y3Ho6Pu,28.2254,29.909,1.6837
Ho(ZnNi)2,10.8163,13.0526,2.2363
InOs2Rh,38.56,38.6951,0.1351
Ac4OsPtBr2,51.2048,50.1374,-1.0674
SrAc4Sm,49.4767,52.2575,2.7807
InOs2Rh,38.2192,38.6951,0.4759
TmTh2Nb,76.6251,73.961,-2.6641
ScBi,13.7146,21.452,7.7374
CsTi3Bi,20.6014,21.6741,1.0727
La2YHoAs4,21.6687,19.364,-2.3047
Tm3Ni8Ag,13.9826,15.6889,1.7063
GdP,33.6086,26.4713,-7.1373
TaMn2Pb,72.3843,64.2303,-8.154
Mo2OsRu,28.9185,26.6946,-2.2239
Co2SbAs,25.6127,19.8223,-5.7904
TaMnPb2,61.1833,58.3965,-2.7867
Sm4IrSeI2,35.6056,31.7774,-3.8283
Na2ScSO6,36.0045,33.2906,-2.714
TbTmAg,29.4867,29.6274,0.1407
CrNiSb3,39.1757,31.935,-7.2407
Pa2AlSi4Ir3,35.943,34.531,-1.412
HoTmNiPt,37.7658,32.8279,-4.9379
PrTmInNi,20.1521,19.3002,-0.852
CoTcHgAs2,27.9347,23.7278,-4.2069
GdTmNiOs,27.9665,30.9172,2.9508
Pu6P5S,41.2507,43.2407,1.99
SrLaAg4,31.4746,25.0224,-6.4522
SbRh2WC,51.4007,38.8347,-12.5661
YRh2W,47.4644,32.4491,-15.0154
AlCuGe,7.4121,7.2942,-0.1179
Tm2ZrNi2,27.8845,27.7311,-0.1534
Pa2SbAu,56.4586,56.4701,0.0114
Ca2ScSb,19.7892,15.7372,-4.052
Sr4TlBi,23.3753,25.6102,2.2349
Tb2NiBr2,15.3695,18.3382,2.9687
BaSi2AgGe,14.6399,10.7299,-3.91
Li3Y(HoSe3)2,28.3973,24.7419,-3.6554
Rb2YWI6,22.7434,19.0501,-3.6932
Ni5Rh,13.3752,13.4623,0.0872
SrCd4Au,22.5563,22.1264,-0.4299
SrCeCd4,20.722,20.0367,-0.6853
Ba2BeBr,2.7947,3.4037,0.609
Ba2BeBr,5.2272,3.4037,-1.8235
AcZnHPt2,44.6234,36.9061,-7.7173
InRhPb2,43.5018,41.9696,-1.5323
CoRhC3,51.7402,35.788,-15.9522
SrCd4In,19.8208,18.9474,-0.8734
Pr6Dy3Tm,3.9876,7.0197,3.0321
Ca(Sc3S4)2,46.2834,39.5137,-6.7697
Ca2TbY,17.7817,16.3774,-1.4043
Y2Rh2W,32.018,21.5922,-10.4258
Ba2Li3YSb4,30.0833,23.7167,-6.3666
Pm2NiI2,19.4802,21.618,2.1379
ThAlCd2,23.2918,26.0281,2.7363
Th2NiI2,36.0635,39.5761,3.5126
Ti2MoRu,3.2802,9.6495,6.3693
YAuS2,36.8537,32.1136,-4.7401
SrMnI2,39.4142,35.3519,-4.0623
TmHfBi2,70.5948,62.5349,-8.0599
ZnInBiSb,31.923,30.6019,-1.3211
Sr2BiMo,20.7692,24.6735,3.9043
Ni(MoPt)2,56.8925,43.1552,-13.7373
SrCeIn4,19.2563,21.0471,1.7908
Yb2SnN,26.2342,28.1476,1.9134
Ni(PdAu)2,27.8317,29.6629,1.8312
NdTmNiRu,19.1108,23.133,4.0221
NbSb2TeBr,63.3295,53.2657,-10.0638
KCr2Sb,19.364,15.894,-3.47
CsLi4Tl3F12,12.2152,11.5114,-0.7039
CsPRu,9.045,11.1479,2.1028
ErZrSbH,36.577,33.5487,-3.0283
CrTeMo2,23.1305,22.209,-0.9215
ZrUH4,27.8134,25.346,-2.4675
CrTeMo,25.7723,23.1577,-2.6146
Nd2MnGa4Pt3,44.2766,34.3394,-9.9372
HoIn(CoH)2,4.9171,8.1024,3.1853
Y2RhW,38.7012,27.6575,-11.0437
HgRuPb2,30.8856,32.7545,1.8689
Y2IrCl,53.5199,55.7584,2.2385
Y5Zn3,9.6269,9.2642,-0.3627
LuSiNi,17.4022,18.047,0.6448
Li2TaPb,19.0591,22.8717,3.8126
La2Pr2YCd5,20.1413,16.7424,-3.3989
TcNi3,27.8506,27.8401,-0.0105
KNi3I,11.4763,12.0967,0.6203
KSiCl,10.6878,8.4702,-2.2176
Zr2BiRu,59.2504,53.5746,-5.6757
FeTeAu,30.1515,31.5732,1.4218
YIrCl2,51.6842,51.3866,-0.2975
MnBeTe4,45.6597,40.2382,-5.4215
Tm2Tl5Pd12,27.4538,28.8152,1.3614
Pr2NiRh2,17.9079,14.2419,-3.6659
FeTeAu2,34.5172,36.5816,2.0644
NaScSi,32.6707,30.0975,-2.5732
LaTmZrSc,46.5902,39.0605,-7.5297
SrLa2(ZnSi)2,29.3892,21.6466,-7.7426
TmNiSn,26.6887,24.3983,-2.2904
Sr2CdOs,22.6774,22.5541,-0.1233
HfRu3C,53.1665,42.2394,-10.9271
YIrCl2,51.42,51.3866,-0.0333
Ni(IrRu)2,23.6267,23.1,-0.5266
Tm6Te2C3,40.1354,36.1345,-4.0009
HgRuPb,18.9248,23.0249,4.1001
TaAl2Rh,22.6578,21.5811,-1.0767
TcTePb,62.9328,59.1574,-3.7754
FeTeAu2,34.3829,36.5816,2.1987
Sc2IrI4,25.597,21.7886,-3.8084
Ni(RuRh)2,37.3476,30.7559,-6.5917
Ba(GaAg)2,14.9493,12.5461,-2.4032
Ac8TePt3Se4,62.2229,55.0582,-7.1646
Li3MoRu,9.7319,8.967,-0.7649
UNbSb,85.1317,75.159,-9.9728
LaSiCl,22.9751,15.1946,-7.7805
Er2B2Ru5W,20.5404,18.9489,-1.5915
ZrTc2Te,81.363,70.0983,-11.2647
SrPmAu4,37.1714,38.7964,1.625
Zr2TePb,72.5327,62.6842,-9.8486
Ac8ZnPt3Br4,51.9697,47.3599,-4.6097
Zr2TcTe,82.495,68.6731,-13.8219
LaCeLuSc,28.9241,27.1132,-1.8109
ZrTcTe,78.0266,67.2566,-10.77
TcTePb,63.0155,59.1574,-3.8581
As2OsI,16.4835,20.6817,4.1983
SrTc2Ir,58.9773,52.9727,-6.0046
KLi2Ni,5.3173,5.8193,0.502
TmSiNi2,7.6598,11.1584,3.4987
InPtRh,52.858,39.3288,-13.5292
AcPrPtAu,48.2848,43.7796,-4.5052
GeSbAs2Br,24.1616,22.3239,-1.8377
TlCdGa2,19.6789,21.3465,1.6677
NdInCu2,11.1523,13.2732,2.121
CsMg14Co,5.4003,5.4047,0.0045
RbLiTl2Sn,26.6291,26.382,-0.2471
NiBi6Pt,52.9807,49.8711,-3.1097
Nd2TeAs,23.8678,26.4094,2.5416
CsMg14Co,5.3935,5.4047,0.0112
InPtRh,52.6838,39.3288,-13.355
SbPt2Rh,68.02,47.4433,-20.5766
Ac6CoPtPb2,54.3029,52.8382,-1.4647
MnSnIrSe,53.0582,47.8752,-5.183
Tm8In2Ga,26.4218,27.951,1.5292
Tm2InGa,21.9173,24.8008,2.8835
YTlW2,45.5991,39.8489,-5.7502
Ce2Ni2Ir,4.2618,7.833,3.5712
La2SiCl,29.5825,19.8659,-9.7166
Tm6In2Ga,25.6448,27.4446,1.7998
Ba2PrScS5,27.8419,22.559,-5.2829
Tm6In6Ga,23.7124,24.822,1.1096
Tm2Si3Au2,22.8235,22.2116,-0.6119
Er(ThNi)2,27.8734,32.9865,5.1131
Tb3Fe7Si2,10.196,9.8467,-0.3493
CrNi3Au,24.855,24.7687,-0.0863
Tm2Si4Pt3Au,42.7199,31.6272,-11.0927
Ni2Pd2W,20.2138,20.4037,0.1899
Ni2Pd2Rh,19.9326,18.8588,-1.0738
Sc2CdI,12.9903,14.8413,1.851
YMoW,39.8673,34.4315,-5.4358
Ac(H4Pt)2,22.165,16.9584,-5.2066
SrTl4Sn,36.692,38.0592,1.3672
Ca2(Pm2Dy)3,21.9358,25.4202,3.4843
Er2Zn3Si,12.4579,13.7566,1.2987
Ac2TbScS5,45.2344,39.833,-5.4014
Ac2TmScS5,45.7168,40.2884,-5.4284
Pr6Er,1.3371,2.5732,1.2361
YMoW2,39.4986,36.3291,-3.1695
SiSn2P,14.2439,15.6791,1.4352
Er2ZnSi,20.5166,21.8008,1.2842
ScCuSn2S5,45.9816,36.2584,-9.7232
ScCuSb2S5,44.0481,31.5562,-12.492
TmSi3NiRu,11.6963,10.5573,-1.139
Y2ScCuS5,37.6803,29.5526,-8.1277
ScU2CuS5,46.4491,37.833,-8.616
TmZnCo2,19.4882,16.8258,-2.6624
Tm2Fe(SiNi4)3,14.8609,13.9824,-0.8785
Mn2SnRh,59.793,48.2215,-11.5714
BiTe5Pb4,47.2284,46.2381,-0.9903
ReTcNi2,55.7742,43.6099,-12.1643
SrAcTe4,35.7246,36.1261,0.4014
FeRu2W,45.3015,36.7422,-8.5593
ZnFe2H4Au,4.6247,4.8571,0.2324
Dy3Er2Cd3,24.5686,26.3759,1.8073
YAg2W,62.3865,50.6785,-11.708
Ac2Co(NiPt4)3,72.3862,51.398,-20.9882
Tm2InNi4Ge3,18.1621,16.0533,-2.1088
ZrCo2As,38.6301,30.9153,-7.7149
YTiPCl2,35.2067,34.6324,-0.5743
Y2HgTe,35.2015,30.5253,-4.6762
TlSiTc2,63.1934,55.7444,-7.449
Tb2PrIn,17.1003,20.2238,3.1235
Zn2MoRu,13.3732,14.824,1.4508
Tm2Ni4Ge3Ir,21.3192,18.8502,-2.4691
BaMg14Cu,4.4568,4.0082,-0.4486
MgNb3Sb,95.7554,77.6506,-18.1048
Na3LiMn,36.4678,31.0263,-5.4415
Tm3Ni9GeP2,18.2325,16.5826,-1.65
YAg2W,62.4154,50.6785,-11.7369
AcU(H3Pt)2,30.8985,26.2105,-4.688
TmSi2NiPt2,39.9967,28.848,-11.1487
FeSb,24.7213,27.6008,2.8794
Pr6DyY2Ho3,10.9858,11.2913,0.3054
AcH8IrPt2,23.7826,19.5687,-4.2139
InRe2Rh,37.5066,36.8358,-0.6708
InOs2Au,38.4254,41.4063,2.9809
InRe2Rh,37.612,36.8358,-0.7762
NaAcPmAu,40.1521,41.2894,1.1373
Na(SrTa)2,33.9426,26.6718,-7.2707
Tl2SiTc,53.1809,48.2657,-4.9152
FeBiSb2,41.5814,36.7038,-4.8776
BaFe3Sb,22.7236,17.7858,-4.9378
BaFeSb2,27.5648,22.1245,-5.4404
AlCdGa2,7.3681,9.2347,1.8667
AcTb2(YHo)2,28.905,30.8732,1.9682
RhWSe2,46.4443,39.4941,-6.9503
Mo2RuPt,37.2428,30.7751,-6.4677
DyErCdTc,42.0707,41.1137,-0.9569
YMo2W,33.9395,31.3074,-2.6321
AcDyYHo2,27.693,31.4651,3.772
HgIrAu3,37.9518,38.8981,0.9463
Be(InC)2,29.714,24.4949,-5.2191
YHoTiAl,29.7871,26.528,-3.2592
MgTi2VH8,12.4534,10.5614,-1.8921
MnMo2RuC,43.7225,37.6103,-6.1122
RbReSn2Bi,29.8603,29.9741,0.1138
Be(InC)2,33.0854,24.4949,-8.5905
Hg2IrAu,22.9012,24.5158,1.6145
Y2HoAl2Pd5,20.382,19.4198,-0.9622
Ac2CdH6Pt,23.4645,21.7902,-1.6743
ReSb2TeOs,44.3682,40.2194,-4.1488
Tb3Sc5S12,27.3305,22.1719,-5.1586
K2CdCu2,9.5971,9.9432,0.346
LaYHoAl,39.3073,31.8285,-7.4788
RePI3,39.9061,34.3153,-5.5908
CaSc(H3Ir)2,10.5971,7.4131,-3.184
Ac2Th(H4Pt)3,25.5482,21.6411,-3.9071
BeTlCd2,23.6862,23.7306,0.0444
Cs6TeO2,12.2949,13.4421,1.1472
SbRh2O,37.1915,30.8685,-6.3229
Cs2RuO3,3.3469,2.6819,-0.665
In2IrI,27.2535,28.584,1.3304
YMo2W,33.7888,31.3074,-2.4813
Cd2SiGe2,11.6767,11.444,-0.2327
SiOs2Cl,26.5494,26.9854,0.436
YMoW2,39.5548,36.3291,-3.2257
AlTl2Sb,37.5092,36.0105,-1.4988
AuBr2Cl,18.7946,18.9778,0.1832
BeTlCd,25.01,25.1306,0.1206
CrHg3,0.1349,0.2449,0.1101
CaGaN2,0.0,1.997,1.997
YMoW2,39.6965,36.3291,-3.3674
CdPt2O,45.42,32.5015,-12.9185
CsNa3(SO4)2,0.0,0.3787,0.3787
Ac2Pt,72.9752,65.2984,-7.6767
La2Te(HI)2,26.3575,22.869,-3.4885
Be2TlCd,19.7443,19.6931,-0.0512
CdPbBr2,30.6142,28.9253,-1.6889
BeIrBr,13.2093,16.238,3.0287
CaYHoAl,27.6629,24.8082,-2.8547
Ag2RuSe,28.7601,25.8386,-2.9215
SmNp(AgO3)2,7.362,9.8728,2.5108
Ac3(AlPt)4,50.1918,41.062,-9.1298
V2SbOs,86.2787,71.1223,-15.1564
IrPtAu2,57.165,51.9235,-5.2416
ZrCu2Cl,29.4386,24.341,-5.0976
Eu2PdRh,30.3691,28.4034,-1.9656
CaSb2IrW,43.6944,36.5128,-7.1816
LaZr2ScFe,67.5912,52.7771,-14.8142
DySi3Ru,12.963,10.5309,-2.4321
YMoW2,39.6261,36.3291,-3.2969
SiPbCl,24.2705,23.1715,-1.0989
TaAlPt3,62.5102,44.6028,-17.9074
BaSrAu4,33.0515,34.5732,1.5216
Zn2CdRe,48.0943,40.8928,-7.2015
Ba4SrHg,2.0229,3.3054,1.2825
AcInPt,46.5606,41.6203,-4.9404
SrGe3Bi,19.8858,20.475,0.5893
Ac3As2(HPt2)2,51.3388,41.6651,-9.6737
HfFeSb,52.2864,38.4533,-13.8331
Cd(AuI2)2,29.1865,30.0934,0.907
EuSnPd2,23.3582,23.5219,0.1637
Y5(NiGe)2,54.9844,45.9672,-9.0172
YMo2W,33.685,31.3074,-2.3776
BeHgC,16.7346,14.3514,-2.3832
NaGeB,12.377,12.0977,-0.2793
Y2MoW,43.371,28.2897,-15.0813
CsLaTi3,19.8201,17.2791,-2.5411
NdDy6Y3Ho2,23.9424,25.5501,1.6078
Hf2Sb2P,68.6408,49.4008,-19.2401
Y2MoW,43.6236,28.2897,-15.3339
Te(AsRh)2,26.3825,21.9742,-4.4082
Rb2NiCBr6,13.7135,11.9111,-1.8024
ErTiGa2,12.4401,15.5845,3.1444
Ac2La2Pt3,64.3602,49.1947,-15.1655
CeYCSe,45.0773,38.1707,-6.9065
LuMgSnRu,18.3865,21.1974,2.8109
MnAgTe2,53.7573,45.7834,-7.9739
LiLaYIn,22.6424,18.9078,-3.7346
MnInTe2,50.6902,45.5165,-5.1737
FeTeOs2,41.5104,38.4095,-3.1009
Pr4Sm2Y,8.1362,10.2323,2.0962
InRe2Rh,37.5799,36.8358,-0.744
TaBi3C,53.981,50.8573,-3.1238
Be2TlMo,21.2019,19.5266,-1.6753
Mn2Te4Rh,59.3865,49.8345,-9.5521
MnTe3Ir,54.8683,48.9689,-5.8994
KSrBi2,33.2414,32.7341,-0.5073
Be2TlMo,21.3061,19.5266,-1.7795
Na2Zn2Ag5Pb,25.0307,21.6461,-3.3846
BeTlMo2,26.145,25.0224,-1.1225
Y2Ho4Al,29.186,29.8642,0.6782
Si(IO)2,40.8316,31.355,-9.4766
MnTc3Te,85.7411,72.4887,-13.2523
Pr2TmMg,6.0917,8.8791,2.7874
Cs3NdV2O8,23.882,20.4516,-3.4303
BeTl2Mo,33.3007,32.063,-1.2376
BeTl2Mo,33.2284,32.063,-1.1653
YMnIr,43.1569,41.5537,-1.6032
Cs2MnGeTe4,40.1837,37.0712,-3.1125
Y6CoCuBi2,33.0907,30.2379,-2.8528
CsMg14Mn,10.2033,9.7119,-0.4914
YMoW2,39.828,36.3291,-3.4989
Cs2Mn(CuTe2)2,36.1714,33.012,-3.1594
ReTeAu2,44.8862,45.6298,0.7436
BaAcHPt,34.1312,28.7215,-5.4097
PdRh2,32.1939,26.4522,-5.7417
PrDy2F11,1.5213,1.6389,0.1175
Mg14BiMo,6.9003,7.7088,0.8085