Formula,E_hull_DFT (eV/atom),E_hull_ML (eV/atom),Delta (ML - DFT)
BaAsP2,11.4285,10.4825,-0.946
IrOs3W,93.9445,81.2029,-12.7416
Pa2VGa3,41.4004,39.2186,-2.1818
Ba2LaAs,16.2378,13.2835,-2.9542
ReP5,24.1323,20.0264,-4.1059
Nd3YAl8,14.5463,13.5833,-0.963
PrSmTh4,47.4651,50.0036,2.5384
CsTlC,43.1731,37.434,-5.739
YBeCl,53.7846,52.4085,-1.3761
CsTlC2,48.018,38.2864,-9.7316
Pm3YAl8,13.8995,13.623,-0.2765
La2Pr2Tm,20.1676,16.6381,-3.5295
YPu3Al8,25.8586,25.4535,-0.4051
BaAsPb2,28.7801,29.8404,1.0603
LaAgPb2,43.0296,40.2475,-2.7821
Hf3TlP,96.9585,71.3886,-25.5699
Ba3GeAs,4.1701,4.4629,0.2928
TmBeNi,14.8525,15.9361,1.0836
Tl2CdI4,30.0088,30.3316,0.3228
Zr(MoRu)2,24.8396,25.9184,1.0788
ZrAlTc,66.566,55.7848,-10.7812
LaAgPb,40.5234,36.4702,-4.0533
La2CeS3,40.8451,30.7306,-10.1146
ZrRe2Te,55.2379,53.4345,-1.8034
LaScTa3,78.0823,66.0623,-12.02
HfTl2(TeS3)2,60.5639,47.4382,-13.1257
Re2IrOs,41.2821,47.0819,5.7998
Tl2ZnS4,47.8691,39.4238,-8.4453
BaHg4As,1.7095,2.3907,0.6812
LaAgPb3,48.2415,44.7726,-3.4689
BaAcAs2,20.6567,22.7406,2.0839
BaCrAs,12.4446,12.2772,-0.1674
ZrTiBr2,28.8761,24.8224,-4.0537
CsGaO2F,20.8085,18.2735,-2.535
Pr4SmTm,6.1052,8.8438,2.7387
Sr2NbSe2,48.1092,43.0085,-5.1007
ZrAlTc2,72.8166,61.1331,-11.6835
CaSi2Ni,11.506,7.5225,-3.9835
La2Tb2Er,32.5059,28.8517,-3.6541
La2Al2Os,24.2175,21.1491,-3.0685
La2TbTh2,52.4418,50.0746,-2.3672
La2TbTl2,41.8073,38.2042,-3.6031
La2TbTm2,34.5811,32.7841,-1.797
LaAlOs,32.4038,30.2298,-2.1739
PmPrTm4,23.7888,26.8838,3.095
Rb3U2Ni3S7,30.2971,25.4321,-4.8649
Ba4Te3As,15.9991,15.6874,-0.3118
Ti(TlS2)2,47.2551,38.6834,-8.5717
BaAcSbAs,29.4301,29.4302,0.0
Li5Ir,7.5937,8.9005,1.3069
MnCu2Br,34.7682,28.9746,-5.7936
K2ReNi,37.6761,25.7968,-11.8793
Ca(SbPt)2,50.0695,37.7423,-12.3272
Co(HRh)3,16.6566,11.5254,-5.1312
NbTeSe4,62.4129,50.9305,-11.4824
Ba2AsW,13.8678,14.8992,1.0314
BaTe2As,23.7776,23.2469,-0.5307
ScVI3,40.645,34.5509,-6.0941
Ca(Dy3S4)2,39.5243,32.9086,-6.6156
EuCuSi,4.3173,5.869,1.5517
Pr2Ga3Au2,13.2378,14.3338,1.096
Ta3MoPb,38.3322,40.6576,2.3255
PaTl2(AgS2)2,50.2845,42.7579,-7.5266
Li2LaTa,18.7873,18.9724,0.1851
TiAlSb,19.3703,17.5511,-1.8191
KWSe,34.0448,30.4987,-3.5461
KAgW,72.6062,55.0483,-17.5579
Sr2HfSc2,32.503,25.7969,-6.7061
BaZrBr2,30.2718,27.1278,-3.144
K2ErBiSe4,36.3288,31.9701,-4.3586
BaP2IrS,31.8681,26.7707,-5.0974
BaZrBr,36.7082,31.6204,-5.0878
BeRe2RhPb,37.7629,36.4466,-1.3163
La4SmDy,43.281,35.1608,-8.1202
HgSb2C,34.5602,26.8395,-7.7207
LaSm2Er5Sc,23.8885,24.5557,0.6671
BeTeRhI2,35.8294,31.8577,-3.9716
Sm3Y8Pu,22.0786,23.611,1.5323
ZnCdIr,28.8627,25.6739,-3.1888
CaBeRh2,33.1887,23.6224,-9.5663
BeAsRh2,25.2345,19.1925,-6.0421
Be3TlRh,20.3089,18.5353,-1.7735
MnBe2Rh,36.7018,30.2852,-6.4166
Mg2RuN,24.6498,25.7044,1.0545
Be2CrRh,14.4477,12.4126,-2.0351
Zn2Cd2Ir,20.3269,19.18,-1.147
BeSb2Rh,34.9751,28.3988,-6.5762
BeRh2Se,36.4665,27.8003,-8.6663
BeSn2Rh,21.8132,18.458,-3.3552
BeSi4Rh,25.8592,17.8037,-8.0555
GaReTe3,35.5729,34.1344,-1.4385
Bi4PtAu,54.807,52.7249,-2.082
Th4PtAu,59.1514,57.2257,-1.9257
NaBe3Ni,6.5085,7.044,0.5356
ZnCd2Ir,26.4335,24.1096,-2.3239
Sc3CdPb,17.6644,19.5898,1.9254
Ti3PbF,16.3765,17.5584,1.1819
Cu2SbPd3,19.2902,18.842,-0.4482
Be2ReRh,22.3967,21.953,-0.4437
Be2TlRh,25.376,23.3385,-2.0375
KNa3Pb,22.2016,20.0642,-2.1374
Rb4TlAu,12.3372,12.6099,0.2727
Rb4CdAg,6.0248,4.7253,-1.2995
Rb4PbAu,11.8058,12.1817,0.3759
LiMoAsBr2,17.188,16.7736,-0.4144
SnMoSe2Br,42.2404,31.0945,-11.1459
PtPb4Au,57.721,54.1027,-3.6183
Cu4SbPd,15.2679,15.3759,0.108
BeTe2Rh,33.7447,29.5126,-4.2321
RbAgPb4,37.3978,37.8085,0.4107
Be3SbRh,19.1681,15.841,-3.3271
HfOsRu,56.9376,48.7915,-8.1461
Zr3RuPt,80.7499,66.5584,-14.1915
SrTcAg2Br,38.6594,31.0003,-7.6591
BeRe2Rh,32.6771,32.7762,0.0991
Mn2NbI,85.6795,68.5693,-17.1102
NiPdC2,38.0109,29.08,-8.9309
Hf3CrNi,98.5286,71.007,-27.5215
BeCrTcRh2,41.836,31.5881,-10.248
Be3SnRh,16.8608,12.6549,-4.2059
MnBe2Rh,31.584,30.2852,-1.2988
Zr(ScSn)2,36.3249,29.7346,-6.5903
LuBeRh2,32.2571,27.0658,-5.1912
Tl3RuS4,49.2559,41.6052,-7.6507
Si2PdRu,19.4417,15.9606,-3.481
RbSrFe2Bi,24.4954,22.2692,-2.2261
BeTlRh2,37.2719,31.5988,-5.6731
EuGaAs,8.0381,10.3709,2.3328
RbNbI2,47.7198,39.7854,-7.9344
Zn2Te,19.2142,18.854,-0.3602
Ac3Pm,54.6209,57.1145,2.4936
Sc6AlAs2,16.9555,14.0436,-2.9119
ScSeI3,24.7425,23.0081,-1.7344
Mg3BiH8,8.2294,8.1417,-0.0877
Tb2BeGa,15.8932,18.2525,2.3593
TcAg2Br,42.3729,35.2795,-7.0935
Ca4ScCo,10.6438,8.6828,-1.961
TaMoAu2,36.8233,39.8838,3.0605
Mg2GeC,19.5604,15.7452,-3.8152
LiReTe,27.7095,29.4905,1.7809
Tl2CdReS,68.2673,56.467,-11.8004
Mg2BiH6,9.4629,9.1202,-0.3427
ZnFe2Br,7.2919,7.9257,0.6338
RbBiI4,23.9734,24.8115,0.8381
Rb4Nb3Pd4,46.2435,38.5078,-7.7357
Zn2FeBr,11.2323,8.3523,-2.88
Th5U,66.665,68.8973,2.2323
Zr6In3Os,61.8626,54.2073,-7.6553
EuNiBr,7.4463,11.5454,4.0991
SrTi2Te,12.3625,14.2777,1.9151
TaTiTe,20.1177,25.0021,4.8844
La(TlBi)2,48.1625,46.9311,-1.2314
Hf2InPb,89.9615,69.2903,-20.6712
Sr2TiTe2,19.5607,18.9552,-0.6056
Er(Fe2B)2,0.9272,2.2024,1.2752
LaPm2Pr2Nd,15.059,15.5317,0.4727
Ca2IrSe,53.0545,41.6729,-11.3816
La2InI,35.8806,29.8385,-6.0421
Sr2SiPb,34.3037,29.5937,-4.7099
LaNp2(TlS2)3,55.9174,47.4507,-8.4667
AsRu2Rh,36.6283,29.3905,-7.2377
LiAlPb,22.6868,22.1306,-0.5562
Np2MnRu,64.3435,62.4694,-1.8741
SrSiPb,41.6062,34.6734,-6.9329
CaIrSe,59.8802,51.1207,-8.7595
CsY(WO4)2,10.5885,10.5277,-0.0608
NpBiRu2,39.3451,43.2239,3.8788
NpOs2Ru,42.4249,45.8372,3.4123
NpTlRu2,38.4402,40.9832,2.543
Si4OsRu2,23.2934,18.4943,-4.799
TiFeBi2,25.7091,27.4953,1.7863
La3(NdGe)2,31.3137,27.01,-4.3038
NpOsRu,42.9998,46.3901,3.3903
Np2FeRu,56.9133,51.3173,-5.596
AuCI3,36.9718,32.6109,-4.3609
Zn2MoI,14.4675,15.1886,0.7211
NpOsRu2,36.2653,40.8828,4.6176
Ba2BSe,8.3355,9.1718,0.8364
SrSiPb2,40.5557,37.3273,-3.2284
KTl3Ru,37.7101,37.6364,-0.0737
NiBIr2,23.4983,27.8022,4.3039
PaGa2Ag,28.7812,29.4138,0.6327
BSeO3,10.2282,8.9677,-1.2605
GeOsRu2,20.8474,25.3209,4.4735
Cd2FeSe,21.9274,20.3652,-1.5622
Pr2(SmCd)3,15.2007,16.5153,1.3146
LaCrIn2,26.463,25.1542,-1.3088
Np2IrRu,54.5647,54.2036,-0.3611
ThNpRu2,41.9633,45.6086,3.6453
NpRu2W,54.8575,48.2345,-6.623
NpPa2Ru,55.1278,58.0082,2.8804
Ac2Ge2Pb3,43.1703,44.7246,1.5543
TiCuOs2,16.1344,22.9978,6.8633
AlPOs2,38.5363,37.2552,-1.281
HfCu3Ni,34.647,27.294,-7.353
Na3(Sb2Pd)2,32.2382,27.5094,-4.7288
MoPbAu2,41.0482,42.743,1.6948
B2Ir2Os,17.9421,23.0808,5.1387
EuGdNi,22.866,23.1925,0.3265
EuLuNi,22.4814,24.9664,2.485
EuCu4Ni,10.2387,12.1122,1.8735
DyEr2InN4,12.4088,14.4209,2.012
Eu2NiOs,26.4464,28.8791,2.4327
Eu2TcNi,39.3127,36.492,-2.8207
B3RuPb,15.1514,16.974,1.8226
Eu3TlNi,28.2198,29.0528,0.833
EuGdNi2,19.8784,19.4949,-0.3836
EuBeNi,11.429,13.695,2.266
RbTl4Pt,46.1675,42.5167,-3.6509
Sm2ThNb,65.0022,60.3956,-4.6065
AlZnRu2,10.6872,14.8515,4.1643
NaCu2Sn5,40.3218,35.4455,-4.8763
EuLuNiPd,21.0328,23.6307,2.5979
Nd2Y(ThS2)3,48.2723,41.3617,-6.9107
TaMoAu2,36.7732,39.8838,3.1106
EuNiRh,27.6312,24.7783,-2.8528
PrIn2Ge,12.547,13.4825,0.9355
YTeAu3,39.8025,40.0989,0.2964
Cs2AuIO,33.8064,31.0729,-2.7335
CaTa2Os,30.2701,34.7362,4.4661
TbEuNi2,16.7606,19.2547,2.4941
EuHfNi4,32.5485,27.5596,-4.9889
Tb8Dy3Y,26.4631,27.6629,1.1998
TaMoPb2,40.0959,42.6166,2.5207
K2HgI4,15.653,15.4757,-0.1773
Ag2HgBi,29.3594,26.5547,-2.8047
ScInPd3,19.2318,18.7538,-0.4781
LiPrYZn,6.6901,6.9028,0.2127
Pr2Nd3Ge2,11.3337,13.7605,2.4268
Al2ZnCl,2.1595,3.7695,1.61
YGa4NiRh2,36.6586,31.6522,-5.0064
LaCe2ScS4,44.5425,35.9833,-8.5592
YCu(SnRh2)2,48.44,37.2772,-11.1628
AlZn2Cl,5.5926,6.6833,1.0906
Tb3YPt8,66.4204,50.2616,-16.1587
KAgBi,32.4925,30.4401,-2.0524
Mn6Al2Rh,72.4435,58.0768,-14.3667
TaTiBr2,16.4046,18.9761,2.5715
La2YC,47.6069,38.0447,-9.5622
Tm2PtC,52.1534,43.0637,-9.0897
ScMn2Ag,53.2936,43.531,-9.7626
Cu(IrS2)4,48.5516,39.6119,-8.9397
ReAgW2,70.6955,61.0558,-9.6397
ZrTlFeS3,46.0795,38.6077,-7.4718
Tb6Pm3Dy2,26.5199,27.9654,1.4455
Sr2Tl2Sn3,26.9148,28.1743,1.2595
K3GaS3,25.763,19.2114,-6.5516
Be(AgSn)2,23.8985,19.5876,-4.3109
ReAgW,81.2177,67.8403,-13.3774
SrBePb,28.462,25.5116,-2.9504
NdPu2S3,54.6667,48.7389,-5.9278
Sc(AlRe)2,27.7993,26.3704,-1.4289
Re2AgW,70.8696,62.7082,-8.1614
Li2AgSb2,24.1731,20.4964,-3.6767
SrBePb,28.2475,25.5116,-2.7359
TaMoPb2,40.0726,42.6166,2.544
BaY(AgSe2)2,44.9754,36.5719,-8.4035
Y4ErAl5,33.8379,27.1906,-6.6473
TaMoPb2,39.6374,42.6166,2.9792
TbNd2ScS4,41.3614,35.0365,-6.3249
NaPd8,18.5275,19.9768,1.4493
Gd3In3Si2Au,24.3675,23.9536,-0.4139
Cs4SbSe5,37.5495,32.2186,-5.3309
InFeSe,26.554,21.7991,-4.7549
Cs2TlSF6,19.2318,18.1084,-1.1234
RbSrCd4,16.8902,15.8118,-1.0784
Se2IBrN,29.1061,23.9269,-5.1791
Cu2IrPd,18.8001,21.4787,2.6787
Tl4IBr2,35.2486,35.4784,0.2298
Y2MnTc3,113.9016,93.6546,-20.2469
CsSb3Ir,43.0176,38.1286,-4.889
KLaAl,22.5015,18.4296,-4.072
Lu2NbPb,65.2985,60.0801,-5.2184
LiTmInHg,14.5678,15.6201,1.0523
NaPuAgGe,34.2767,32.9232,-1.3535
Co2BiIr2,24.3995,29.4705,5.0709
CsGa2Sb,18.7839,18.6715,-0.1124
Sb2IrBr,43.952,40.5608,-3.3912
Y2BeSi4Ir3,37.3384,33.2317,-4.1067
NdY2(TlS2)3,54.73,47.7802,-6.9498
RbTc,15.1082,12.4,-2.7083
MoF,0.0,0.1484,0.1484
YNb3Si,103.1738,82.4959,-20.6779
Bi2SbSe2,46.531,41.8844,-4.6466
RuAu,14.7488,22.7803,8.0315
Rb2SrTc,26.4658,22.1604,-4.3054
VPb2I,61.099,54.3806,-6.7184
RbSr3Tc,27.5186,24.1729,-3.3458
Zn2RuPt,26.2641,23.8279,-2.4362
MoRu2Pb,26.9566,28.7193,1.7626
Zr2Cr2Mo,36.8345,33.052,-3.7825
Rb2MnVCl6,19.7462,15.9109,-3.8353
NaDy2ScTe4,31.3595,29.7187,-1.6407
LaFeO2,34.8523,30.326,-4.5263
YTmSeO2,34.2359,27.4724,-6.7635
ScTeS2N,40.1804,33.4769,-6.7035
RuPbBr2,35.6983,31.8625,-3.8358
Mo2PdBr,19.3183,17.9267,-1.3915
GeMo2BrF,19.9329,18.784,-1.1488
Sr6In2Co,13.9824,15.2377,1.2553
Cs(GaSb)2,26.0041,23.8265,-2.1776
Mo2RuPb,28.4719,28.7261,0.2543
HfZrOs2,71.733,63.9117,-7.8213
Sc2SbAs,29.7142,23.4997,-6.2145
Ce2Pm(TmS2)3,40.2841,33.243,-7.0412
Mn2AlRh,62.3175,50.1094,-12.2082
NdSbPt,51.919,43.0879,-8.8311
CaAg,18.0355,15.6478,-2.3877
LaMo2I,27.2338,25.393,-1.8408
LiAg3Pb,29.8596,25.9898,-3.8698
NbBF2,39.8061,34.0636,-5.7425
LiSi2PtO6,10.2956,7.1655,-3.13
YbIn2Ru,18.0926,21.0104,2.9179
Sc2AlRe,35.7916,29.5554,-6.2362
Ba(AlAu)2,23.1735,22.5741,-0.5994
NaScMn2,53.966,47.5807,-6.3854
AlGeRh3,40.1813,29.2477,-10.9337
LiTi2Sb,8.6663,11.6245,2.9582
Y2ErSc7,9.8542,11.2993,1.4451
LiDy(SiO3)2,2.1883,2.7723,0.584
CaMn3Pb,72.7198,60.324,-12.3958
Cs3HfRh,54.4849,42.0685,-12.4164
TlSbTe2S,48.4564,42.256,-6.2004
CuAgP2N,27.7551,20.1947,-7.5603
Re(BTe)2,26.368,26.8269,0.4589
Pm2SbF,24.4808,25.2853,0.8044
Y2ErUO8,20.5864,20.6812,0.0949
Nd3Tl3Ge2Rh,32.1288,32.1684,0.0396
KH4F5,0.0,0.965,0.965
CsSrGe3,14.4898,15.114,0.6242
CaReTc,46.5415,43.5652,-2.9763
Zr2CrMo,55.417,49.3243,-6.0927
Sr3TeRu,20.1034,20.168,0.0645
BaAl5Au2,17.9017,17.5421,-0.3596
Cd2Ge2Rh3,28.7854,23.8631,-4.9224
Sr2Tl3Cd,32.2308,32.089,-0.1417
Ge2PtRhAu,41.555,33.9815,-7.5735
LiAl4V,21.0193,17.4394,-3.5799
Tl3BiS4,54.0094,46.6097,-7.3998
LaBe2Mo,21.2571,16.5698,-4.6874
Tl3RuS,46.1593,42.9145,-3.2448
Tc,0.0,59.0056,59.0056
SmCo4Ir,18.6063,19.8581,1.2518
CaCo2Os,21.8947,21.3034,-0.5913
CrRe2Te,33.3541,34.9711,1.617
MnSi3Ru,35.29,25.9296,-9.3604
Sm5Ho5Er,27.2126,28.4798,1.2672
RuBrF2,16.4349,15.0701,-1.3647
CaFePb2,43.1415,40.6177,-2.5239
Pm2PuInN4,17.1736,19.1625,1.9889
CaTb2(TlS2)3,44.6188,37.2278,-7.391
ScGeSeS,35.5989,29.6952,-5.9037
Ti3SbI,17.3649,16.9414,-0.4235
La6NdAg,46.0522,34.3596,-11.6926
RuAuC2,50.4893,41.809,-8.6802
Cr2ReTe,25.4997,25.2982,-0.2015
YAuS2,36.7528,31.2611,-5.4917
Tl3Cu2WS6,45.2287,37.5803,-7.6483
RbGaN2,6.755,7.559,0.8041
LaBeMo2,26.2393,20.7324,-5.5069
K2Rb2Bi,14.4418,14.1354,-0.3064
Sr2BiAs2,23.4135,19.8831,-3.5305
LaBeMo2,26.137,20.7324,-5.4046
AlCd2GeTe,27.3588,24.1124,-3.2464
HfGeIrRh,60.772,48.9441,-11.8279
Ni2P5,3.7844,4.7733,0.9889
Co2Pt2Pb,50.7413,40.2373,-10.504
CaDyEr,20.6665,23.2399,2.5733
YEr3Sc7,12.7862,14.6247,1.8385
Be2Ru,-0.0,6.2547,6.2547
LiHfNi2,38.9442,29.9734,-8.9708
Ta3PdN,32.7379,27.817,-4.9209
Y8ErSc2,13.839,15.1887,1.3496
CaFeTc2,63.5057,51.8927,-11.613
Li(Co2Se)2,18.429,16.1778,-2.2512
Tm6Sn3C2,32.889,30.272,-2.617
LaGdO4,21.6985,22.3631,0.6646
TbHfTi,51.6299,41.6999,-9.93
CuSi2As3,24.8083,21.3111,-3.4972
Sc2CdTe2,20.551,19.162,-1.389
NiO8,2.85,3.4828,0.6328
CuSi2As,23.4072,18.3568,-5.0504
PrThIr,34.4564,38.0222,3.5658
PrTmPd2,16.4681,17.6732,1.2051
Sr(LiSi)2,18.3917,12.9816,-5.4101
Cd(InTe2)2,32.1055,31.3433,-0.7622
CsInTe3O8,16.1262,14.1323,-1.9938
RePdPb2,41.4024,43.7329,2.3305
SbTe2MoBr,40.6719,35.3202,-5.3517
TbTm2(PuS2)3,51.8433,44.8546,-6.9887
YEr2Sc,13.9894,18.3388,4.3493
TbTm2(PuS2)3,51.8429,44.8546,-6.9882
InReTe,34.4336,35.3129,0.8793
Cd3Au8,39.6222,40.608,0.9858
Cs(BaSn)2,9.8545,12.0125,2.158
Zr2TlTe,72.0863,64.3637,-7.7226
CuAsRh2,28.5852,22.9963,-5.5889
Zr2TlTe,72.1463,64.3637,-7.7826
Na2TaCrO6,11.322,7.6915,-3.6304
TlZn2GaCl6,6.0559,6.6403,0.5845
Cs2SCl,26.2642,22.4543,-3.8099
AlPRh2F,35.726,26.8574,-8.8686
Ni3PdRh,18.6148,16.8353,-1.7795
Li2YPd,16.6609,15.1089,-1.552
SrOsW3,93.6556,75.0115,-18.6442
ZrTl2Te,60.4066,56.9147,-3.4919
Cd2WI,23.1036,25.0827,1.9791
Y2PbC,36.9636,36.2181,-0.7455
HfRh3F,60.1054,42.9146,-17.1908
HfRhF3,42.3751,30.3731,-12.0021
Rb3CaI,6.8043,6.7692,-0.0352
YErIn3,17.944,19.8394,1.8954
Sr3(GeAu)2,21.5782,22.7886,1.2104
PrSmC,26.8064,22.2148,-4.5915
SbRu3Pb,30.5203,30.6204,0.1001
Fe2MoPb,23.2276,20.1336,-3.094
Sc2TiTe,16.4134,17.4811,1.0677
SrTcOs,27.3435,28.4463,1.1028
Y3Er7In,25.1121,25.4176,0.3056
Sn2Ge2Au3,28.8101,30.0959,1.2857
Sn2Ge2Ir3,26.9967,29.3033,2.3065
Pm3Pr8,3.2921,4.61,1.3178
BeMo2I,18.1335,21.5281,3.3946
YEr7In2,26.9663,27.711,0.7447
Cs2PuZnCl6,13.7516,13.9408,0.1891
Y2Er3Sc7,12.7473,15.6072,2.8599
NaSmPa2N5,11.5432,13.9868,2.4437
CrRhF2,17.4471,12.5608,-4.8863
CaRh2W,35.893,30.9276,-4.9655
Ce3Hg2Au,19.8476,21.6577,1.8101
Zr4MnS8,71.4351,54.5924,-16.8427
Li2SnI,10.7767,12.0784,1.3017
La(ZnSb)2,27.4084,23.2773,-4.1311
ZrCu3Hg,24.8396,21.8326,-3.0069
CaOsPb2W,91.6604,77.2426,-14.4177
Al2CuSb,12.2351,12.1153,-0.1198
ScBe2S,20.149,20.5853,0.4363
Ca2TiHg2,0.1573,2.0381,1.8808
In2Ge2P,12.8864,14.2755,1.3891
PmNdCu17,8.5353,9.716,1.1807
Y4Er5Sc,20.952,22.8975,1.9455
Rb3(LiS)2,9.9049,5.1029,-4.8021
CoTe6Os,37.5477,36.1532,-1.3946
CaRe2Rh,34.0161,33.2507,-0.7654
Li5(YSn2)2,17.7792,14.3386,-3.4405
MnBe2Tl,38.2336,34.481,-3.7526
Rb2PuZnCl6,9.2914,9.9154,0.624
HfGeRu,55.9263,44.6038,-11.3225
ScCdIn4,16.626,15.8264,-0.7997
TmInRh4,40.8055,32.488,-8.3175
BeAlIr2,33.5392,32.5366,-1.0026
TeBr2,21.7691,22.0828,0.3137
Al3AgRh,18.6219,15.2043,-3.4176
Pr12AlIn6,3.8739,4.1052,0.2312
AlCu2Pb,19.7323,19.1733,-0.559
La4Ho11Er9,32.6738,31.3906,-1.2832
Cs2ReWI6,26.416,26.8568,0.4408
AlAg2Rh,28.5011,22.701,-5.8002
AlAgRh2,32.7823,26.8682,-5.9141
Al2CrRh,10.5019,10.1616,-0.3403
CsZr,55.1829,45.0551,-10.1278
Li2AcCu2,15.7075,17.3298,1.6222
La4Pm11Er9,31.0417,29.7376,-1.3042
YEr2(PuSe2)3,46.5052,43.4463,-3.0589
CaTb2YRh4,35.2967,28.4855,-6.8112
Rb2Se2I,20.8869,17.1489,-3.738
Cs4SmU3O12,14.353,16.0052,1.6522
AlCu5Sb,12.8931,12.0445,-0.8486
ZrNi2GeO6,13.1852,12.1254,-1.0598
Rb2Se2I,21.3035,17.1489,-4.1546
Zr2SbSe,65.7242,55.9752,-9.749
Dy2Y2Er5,25.4945,28.7669,3.2724
Li2CuGe2,5.079,6.7339,1.6548
Zr5IrOs4,69.7574,64.7579,-4.9995
ScCS2Cl,51.0632,38.3026,-12.7606
Dy2Y2Er5,25.4753,28.7669,3.2916
AlCuPb2,30.1464,30.4551,0.3087
Pr3(NdNi)2,15.0983,13.5373,-1.561
CaPm2YAg4,26.4158,23.1084,-3.3073
La2Bi2Ru,39.5495,36.1379,-3.4116
RbLi3Ru,23.7604,20.1702,-3.5902
AgAsRh,30.1443,24.3264,-5.8179
La6CeYEr2,40.9723,32.7924,-8.18
SiHg3Au,12.9316,11.8666,-1.065
Tl2CrAu,39.8323,40.1475,0.3152
NaCaCu2Ni,13.4695,10.7696,-2.6999
AgRhPb4,44.2797,42.0367,-2.2431
YNiSn2,47.8358,43.6228,-4.2129
TiGeIr,3.7249,12.2164,8.4915
Tl3CrAu,42.2896,42.4768,0.1872
Tl2CrAu,39.755,40.1475,0.3926
Ge3(SeI)2,24.0758,22.1392,-1.9365
BaCa2Se,34.6482,28.6588,-5.9895
BaSrPt2,47.6315,36.0707,-11.5608
AcHgGeAu,29.7827,31.5802,1.7975
Li2Ni5B2Pt,6.5382,7.3615,0.8232
AgAsRh2,34.922,27.9339,-6.9881
Ir3AuN,36.4348,38.4103,1.9755
SrCdMo,7.2003,8.973,1.7727
Ir3AuN,39.356,38.4103,-0.9457
IrAu3N,39.6119,39.9993,0.3874
Al3CdAu,15.3295,16.3961,1.0666
Cu2PAu,20.9171,20.2097,-0.7074
Sr(SnGe)2,14.7036,15.956,1.2524
Ta6Bi2Au,42.335,45.7865,3.4515
SrCaLa2Cr,34.0228,25.9326,-8.0901
UF2,26.5525,30.2785,3.726
BaSn3Os,20.5608,22.3486,1.7878
KCe5S8,40.2948,31.7107,-8.5841
Te3Se,40.791,38.3655,-2.4255
Sc2ZnCd,8.9324,11.2225,2.2901
La2Pr6Nd3Al,12.7656,11.2443,-1.5214
BaSn2Os,15.1998,18.0702,2.8704
YErInPt,38.485,34.1689,-4.3161
Tb3CeS4,39.4629,36.355,-3.1078
ScZn3Cd,9.9093,11.0815,1.1721
YAl3ZnNi,25.799,25.0868,-0.7122
Bi2PbAu,52.3425,53.889,1.5465
BaHg4Rh,5.7228,4.503,-1.2198
YErPt,43.4811,37.1461,-6.335
NaMgTa,17.0989,19.7975,2.6986
VPS2O,57.6606,42.3032,-15.3573
La2Nd3Dy2,33.1655,31.0294,-2.1361
Sc3TeS,11.8247,11.6792,-0.1455
Y3(ErPt)2,39.1172,33.1911,-5.9261
NaMgTa,16.8639,19.7975,2.9335
Y3(ErAu)4,31.0688,32.4115,1.3426
K3Cd5Ag2,18.0571,16.7232,-1.334
FePb2Se,41.1183,37.8429,-3.2754
CdPtBr,41.596,32.9285,-8.6675
YInPb3,39.0527,39.7863,0.7336
BeGeP2S,16.3773,16.4319,0.0546
CuSb4Cl,32.6483,27.2777,-5.3706
CsBa3Hg,5.4313,5.6077,0.1765
YEr2Au,29.6673,32.4904,2.8231
BiPb3Au8,49.1611,50.1999,1.0388
ReTe2Rh,43.8416,39.8119,-4.0297
Sm2Si4Ir3Os,31.4116,28.6763,-2.7353
Y2Er3Au2,29.5372,31.3841,1.8469
SrLuSn,22.2887,24.5156,2.2269
Li2Ga2Tc,21.9502,20.131,-1.8192
CaMoPd,11.8293,10.794,-1.0353
ThCoSi,20.9411,25.8272,4.8861
DyAl(PO4)2,14.075,11.2222,-2.8528
La2Pr3Os2,24.548,22.8194,-1.7286
CdPt2Br,53.3274,40.8698,-12.4576
FePb2Se,41.2083,37.8429,-3.3653
YErAu2,33.5681,36.0198,2.4517
YEr2Pt3,48.7506,39.7815,-8.9691
La2Tb2Pr3,20.3246,18.1694,-2.1551
Y2ErAu6,37.0799,39.0856,2.0057
Dy5(YEr)2,24.8345,27.3313,2.4968
Tl3SiGe,35.9466,35.0026,-0.9441
RbBeSb,15.3984,13.9374,-1.461
LaThAg,49.7589,44.7597,-4.9992
Tc2TeMo,63.5755,53.7082,-9.8673
Tl(SiGe)2,20.0994,18.1877,-1.9117
TiBeRh2,33.2463,25.4975,-7.7488
Dy2Y5Er2,20.3261,23.4098,3.0836
Sb2AsF,27.0914,24.5506,-2.5408
TbYEr2Th,28.1726,30.6866,2.514
LaTh2Ag,53.8862,51.6836,-2.2026
Mg3BiH,14.6977,14.7379,0.0403
Pm2DySb2,27.1758,27.7979,0.6222
La2ThAg,50.2191,43.778,-6.4412
LaSm3(YEr3)2,27.5708,27.6453,0.0745
K2OsPb,30.6109,30.8117,0.2008
AlIrW2,30.7256,35.5725,4.8468
Pr(AlAs)2,19.2451,14.272,-4.9731
LiHfTaW,54.9922,47.7764,-7.2158
La2ThAg,50.3737,43.778,-6.5958
Sb3Cl,34.7774,29.7546,-5.0228
FePt2Se,57.4951,42.6828,-14.8122
Pr3YErTm,6.5161,8.1216,1.6055
LiSeI2,23.7374,21.7892,-1.9482
Mg14CdFe,3.4991,4.2104,0.7113
YbSi2Ru,16.6888,14.3205,-2.3682
CsBi2I,35.9237,37.33,1.4063
AlCuSb4,32.8783,27.4794,-5.3989
YHo2ErIn4,23.1523,23.3531,0.2008
Cr2MoRu2,4.8939,8.7025,3.8086
Hg2GeRhAu,21.9115,19.3646,-2.5469
CuPb2,33.827,37.6482,3.8212
Pr6Y3ErTm2,10.1568,10.5632,0.4064
Sb2Pb,47.5774,43.5378,-4.0396
PaPb,60.2674,64.4946,4.2272
Li2Y(ZnHg)2,11.1736,9.9395,-1.2341
ScGe3Te,25.3498,20.9428,-4.407
Li2Ge2Ir,7.4663,10.4816,3.0153
CuPb,7.1147,12.8481,5.7335
Mn4RuF2,62.5953,50.6864,-11.9089
AlSbPb2,38.4678,38.4269,-0.041
TiMnCrGa2,36.3164,30.9984,-5.318
Tl(PbBr)2,44.5775,41.6048,-2.9727
Ba2SrBr,7.9674,7.7385,-0.2289
BaSnRu,5.6908,7.4385,1.7477
Cr2TeIr,27.3057,25.634,-1.6716
Ti2TlGa2,10.5126,14.1441,3.6315
Cr2ReIr,26.6488,27.9051,1.2563
Rb2CaSnCl6,4.9684,4.8516,-0.1168
TlIrI2,35.9139,36.6183,0.7045
CrCoIr2,26.5508,28.0887,1.5378
TaCr2Ir,51.2567,41.7635,-9.4932
SrGaF3,9.3486,8.8645,-0.4841
Be2PdI,23.4337,22.7441,-0.6896
CrIrOs,33.6321,35.5252,1.8932
Cs2SmPu3O12,14.3801,17.9116,3.5315
Na3CaF6,9.5653,8.1214,-1.4439
Cr2TcIr,39.67,35.5155,-4.1545
TaNi2Au,24.1278,27.7537,3.6259
CrAgIr2,33.2096,33.8475,0.6379
Ca2PbF,12.4299,15.1709,2.741
Pr2SiP,17.2236,15.3288,-1.8948
CrIr2Br,41.121,39.7609,-1.3602
CrAsIr5,34.6504,36.2525,1.6021
TaCrIr,63.4605,51.0763,-12.3842
CrTc2Ir,60.728,54.5163,-6.2117
Cr3ReIr,24.7076,23.7011,-1.0065
Cr(InIr)2,21.8561,23.6694,1.8133
CrAsIr,22.9119,22.9995,0.0876
Cr4AgIr,19.3825,18.11,-1.2725
ScSBr2,30.2806,29.2641,-1.0165
CrIr3Br,42.7476,41.4766,-1.271
NaTiPtF2,30.9612,23.5704,-7.3908
Li3Br4,22.1082,19.6456,-2.4626
Pr2SmYEr,8.729,11.5082,2.7792
PaCrIr2,41.4763,42.8571,1.3808
CrHgIr2,25.3524,26.2683,0.9159
NaCr3Ir,21.0797,19.855,-1.2247
ScBeS3,42.909,33.9045,-9.0045
CrIrPt2,58.8338,46.6197,-12.2142
Sr2CrAg2,17.6985,13.9206,-3.7779
ReAgTe,39.3678,37.6152,-1.7526
SnMoI2,37.177,28.5893,-8.5878