Formula,E_hull_DFT (eV/atom),E_hull_ML (eV/atom),Delta (ML - DFT)
ZrSc3Pa,28.8537,29.308,0.4543
K5FeNiH2,17.6723,13.455,-4.2174
BeTcI2,41.62,37.4397,-4.1803
ZrSc3Sn,26.2509,22.6468,-3.6041
HfScB3,31.0943,24.1701,-6.9241
PuZrSc3,38.2529,36.5381,-1.7148
Hf(Cu2Tc)2,52.1946,41.7844,-10.4102
ZrSc3Tc,63.4265,55.4492,-7.9773
ThScAu3,36.4311,40.4933,4.0622
SrHfGa,50.404,39.9395,-10.4645
YAlRhO4,11.1675,9.8984,-1.2691
SrTa2VO8,27.6701,22.4555,-5.2146
ScCd3Hg,12.6436,13.5981,0.9545
PrPu2Pt9,77.9598,59.7386,-18.2211
Y6InPd2,17.1415,15.8502,-1.2912
CaSc2Fe,28.45,24.1992,-4.2509
Fe5W,7.7252,11.0062,3.281
Ta2TlCr,59.4863,49.8315,-9.6549
Y3B2Ir2N3,60.1217,52.3177,-7.8039
SmScCu3,17.5175,16.5946,-0.9229
Zr2SbPb2,63.8375,58.4016,-5.4359
V5(P4Pb)3,24.4424,19.4612,-4.9812
Li2AcTl4In,36.4767,37.1004,0.6237
CsNi3Sb,23.1536,19.5845,-3.5691
YHfZnCu,55.7933,41.5936,-14.1997
Pr2NdRu,35.7363,34.3111,-1.4252
LiLaSmEu,26.5585,24.7663,-1.7922
Y2Zn4Ga3Cu,14.5993,12.9415,-1.6578
ZrP2Os,36.4478,34.9308,-1.517
MnBe2Ag,34.1745,27.6019,-6.5726
V3Bi,102.792,82.2743,-20.5177
ThScGa3,13.4899,17.5156,4.0256
FeNi2Ag,28.3727,25.9878,-2.3849
BiAuBr2,31.2344,32.6178,1.3834
Tl2CdI,35.8741,36.3935,0.5193
Y3NiTe2,57.6246,52.0754,-5.5491
YZn6CuAg,14.291,12.6614,-1.6295
Zn(SbAs)2,20.2902,17.9183,-2.3719
CsCo4Bi3,26.8925,28.3654,1.4729
YZnCuSn,36.5674,31.6623,-4.9051
Ag7Ru,29.9402,24.2171,-5.7231
MnBi,48.3895,41.9503,-6.4392
Y2AlTe4,36.1112,32.1696,-3.9416
CuNi4Pt,20.1531,18.0723,-2.0807
TaCrW2,55.9964,48.5484,-7.4481
SrThSc2,22.5677,25.6123,3.0446
LaMn,76.8096,59.5318,-17.2778
Ce(ZrCo)2,46.5273,42.433,-4.0943
CePrAg4,24.1443,20.7813,-3.363
AlCrPt2,47.4305,35.2496,-12.181
AlPAu2,41.483,38.3804,-3.1026
NaPuZn17,11.83,12.4236,0.5936
NaCaZn17,8.6076,8.768,0.1604
AlCd3Te4,28.2977,27.6481,-0.6495
Li2BeI,15.7867,16.0606,0.2739
AlPAu2,41.5573,38.3804,-3.1769
RbTbCd17,18.5993,19.0694,0.4702
Al2PAu,30.0094,28.6984,-1.3111
La2ErAg,41.1894,34.1325,-7.0569
SrInRu3,17.7116,19.4704,1.7588
SrZrSc2,30.7788,29.1297,-1.6491
Sr2ZrSc,33.2303,30.514,-2.7163
CsRbZnGeO,20.9849,15.8924,-5.0925
GaCuNi4,7.6159,9.2211,1.6052
LaTh3Sc,44.915,46.692,1.777
Tb4Ir2PdRh,31.6653,31.711,0.0457
Sc6BiAs2S3,39.633,33.6488,-5.9843
Ca3FeCo,20.2249,15.8636,-4.3613
DyTlCd17,21.2485,21.7937,0.5452
CaFe4Co,13.5469,11.6558,-1.8911
AcErCd17,21.9756,22.5541,0.5785
DyTmCd17,20.1357,20.7181,0.5823
Na(BeV)2,51.8427,41.801,-10.0416
HfMnZn17,19.6347,16.8047,-2.83
ErTlCd17,21.3616,21.9029,0.5413
Na(BeFe)2,16.4268,13.4084,-3.0185
NdSm3Sc,6.1469,10.5544,4.4075
NdEr3Sc,8.9791,13.6125,4.6334
Sr(HoS2)2,22.2144,18.4464,-3.768
NaCeMg17,4.9364,5.2653,0.3289
ErPuCd17,22.4481,23.1079,0.6598
Zr(CoSn)2,23.6551,23.4769,-0.1782
K4Br2F,9.8454,9.1931,-0.6523
SrSc2Re,38.4224,31.7955,-6.6268
SrSc2Re,32.8873,31.7955,-1.0917
CaLa2Mn,52.3076,41.1708,-11.1367
NaPaZn17,11.6015,12.1411,0.5395
NaNpZn17,11.7733,12.326,0.5527
BaErCd17,18.5825,19.1397,0.5572
Ce2CoBr2,19.5407,18.5874,-0.9533
CeNdScPb,26.7414,29.3935,2.6521
SmCo4Cu,19.8586,18.112,-1.7466
LaScCu17,12.248,11.6059,-0.642
ScMo3Cl,26.8744,25.9427,-0.9316
YTeI2N,43.0511,38.1873,-4.8637
GaNi4Ge,9.8318,9.9929,0.1611
Ta(AuC)2,46.9529,40.4706,-6.4823
ThScCd17,20.8726,21.4451,0.5724
CaPrZn17,7.0022,7.4385,0.4363
LaHoNi17,9.5801,10.4173,0.8372
NdScCu17,10.824,11.0187,0.1947
DyScCd17,18.8176,19.3489,0.5313
PrPuNi17,10.529,11.7646,1.2356
PrUNi17,10.3359,11.6596,1.3238
CaUZn17,10.9155,11.2961,0.3805
RbTmCd17,18.8319,19.2964,0.4645
RbThCd17,20.6914,21.1738,0.4824
DyCoBiH2,12.587,15.7879,3.2009
Y2PaP3,34.5892,28.7375,-5.8518
Ni4GeRh,16.7575,14.0925,-2.665
YP2Ir3,21.6039,19.9264,-1.6775
YP2Ru3,3.4051,4.7944,1.3893
YScCd17,18.1014,18.6405,0.5391
CsTbCd17,19.791,20.3111,0.52
LaCeCd17,21.0469,20.8113,-0.2357
Ag2Pt2Au3,54.79,46.554,-8.236
YNp2P3,7.9318,9.0986,1.1668
Mg2S2O7,3.5271,3.6587,0.1316
YHf2P3,59.897,42.6984,-17.1985
SrNdHg17,1.5911,1.8509,0.2598
ThCd17In,21.6764,22.2555,0.5791
ThCd17Pb,23.3926,24.0345,0.6419
LaErCd17,21.2989,21.0579,-0.241
HfTiZn17,14.616,12.9786,-1.6375
PaTiZn17,10.5861,11.3929,0.8067
Ac2HgWO8,14.2609,16.0092,1.7483
KGe2PdO6,6.1446,5.7343,-0.4103
Ac4UN5,33.0493,33.9744,0.9252
AlTe3Pt,44.5521,37.4008,-7.1513
CeThZn17,11.4026,12.1741,0.7714
AcCeHg17,4.3152,4.57,0.2547
Ca2AlInSe5,43.4609,35.1301,-8.3308
PmSmCd17,19.6496,20.2278,0.5782
ReNi4Ir,23.4957,19.9586,-3.537
NdHoCd17,19.8316,20.425,0.5934
K(Co3S4)2,33.0917,24.3959,-8.6958
AcUB12,9.6821,11.4123,1.7302
YBTe2I,62.0426,53.3967,-8.6459
MgC2,35.9132,27.3114,-8.6018
Sc5S5N,43.7796,38.6558,-5.1238
MgC,22.6497,20.9733,-1.6765
HoScSe3,27.8344,25.6699,-2.1645
TmTlCd17,21.4344,21.9744,0.5401
LaPaZn17,12.9144,12.8966,-0.0178
ScSbSe3,34.2125,27.5358,-6.6767
CePbAu17,46.3001,47.1396,0.8396
Ba2Tl6CdPb,35.1815,36.2278,1.0463
NdNpZn17,11.6644,12.5231,0.8587
PaZn17Mo,11.2182,12.0068,0.7886
K2NaTeF,28.8926,24.2497,-4.6429
Ta2CoNi2,35.1351,32.3648,-2.7703
CsPuCd17,22.215,22.8263,0.6113
AcPrNi4,18.7737,19.1244,0.3507
Li2Ce2Sb2O,27.9386,26.089,-1.8496
PuNpZn17,14.213,15.1103,0.8972
Sm2Np(SeN)2,29.5651,30.0595,0.4945
Tb3Nd3Tl2,31.7283,33.1974,1.4691
Zn2Co2Si,14.7706,7.3524,-7.4182
Sc2SN,25.5105,25.8433,0.3327
Co(PdPt)2,45.762,36.198,-9.564
HfMoRu2,49.0946,40.6965,-8.3981
Na3(AgBi)4,37.9092,34.5202,-3.389
AgBiTe2,42.6927,40.774,-1.9187
Li4SeO,17.8008,14.8051,-2.9957
GaSn2Os,23.2356,25.8187,2.583
Tb2Pm2Co,16.5308,19.9834,3.4526
ZnCo,7.5481,0.3024,-7.2457
Co(IrRh)2,38.2681,35.114,-3.1542
KAcCd17,21.0756,21.4839,0.4083
La3TbYEr,32.4497,27.9281,-4.5216
KBaHg17,0.207,0.3013,0.0943
BaTlB12,4.1236,5.6976,1.5739
Sr2InMo,12.9469,15.6585,2.7116
AcY2Th,39.6217,42.9077,3.286
CaInB12,2.2735,3.7613,1.4878
Sm2Tm2Co,18.2636,22.6902,4.4266
CsRb3Be,6.9569,6.3821,-0.5748
CsNi2Bi,19.9931,23.1011,3.108
CaSnB12,2.2998,3.8635,1.5637
Co(IrW)2,35.4029,38.4188,3.0159
MnHgBr2,30.074,26.4606,-3.6134
Tb3(Y3Er)2,20.2722,22.3223,2.0501
SrInMo3,18.5898,19.7517,1.162
Nd2ScAlS6,35.7888,29.0355,-6.7533
CsKHg17,1.5189,1.5802,0.0613
CaUB12,5.5015,7.1971,1.6956
KTlHg17,2.9791,3.0363,0.0571
KHg17Pb,3.0937,3.1624,0.0687
In4CoPb2,28.6004,28.7291,0.1288
SrInMo2,17.0724,19.2003,2.1279
Li2NdPN,12.7746,10.2468,-2.5278
PmNdSmHo2,22.2659,25.8522,3.5863
BaCdB12,2.804,3.3369,0.5329
CePuB12,7.0497,8.8105,1.7608
K2SrIr,22.7643,19.3854,-3.3789
NiTeI2Br,21.4412,21.208,-0.2332
CeTmB12,4.1108,5.7965,1.6856
TbCeB12,3.7868,5.4814,1.6946
CaSmEuLu,23.1071,25.3498,2.2426
Na2BeAuBr,21.8144,20.1529,-1.6616
CuSnMo2Os,45.9993,37.788,-8.2113
Ce3YPb5,33.4339,35.4204,1.9865
AcCrB12,5.6978,6.9282,1.2304
CeUB12,6.8557,8.6298,1.7741
Ac2GaCo2,29.7568,32.5303,2.7735
TbTh3Sc,39.4077,43.0846,3.6769
CsAcB12,6.6546,8.2359,1.5813
Ba2Ag3Hg2,10.8531,8.8332,-2.0199
TiNb2B,63.8831,55.6365,-8.2466
Pm2PrTi,12.922,16.0815,3.1595
DyPaB12,6.9582,8.6881,1.7299
Ce2Cd2Ag3,22.6185,21.1933,-1.4252
BaYIrO6,16.1505,15.7835,-0.3671
HfNbPt4,106.3524,77.893,-28.4593
CaY2Ru,21.7025,17.8239,-3.8786
LiUBe17,4.2495,5.4217,1.1722
CaTaNiN3,13.552,9.9082,-3.6438
LiTmBe17,4.8771,4.1817,-0.6954
YCo2TcC,65.5088,54.8839,-10.625
SrTlRe2,44.684,41.3078,-3.3762
LiTiBe17,2.4941,3.033,0.5389
LiBe17W,6.1951,5.2341,-0.961
BaYSc2Co,26.3968,23.2299,-3.1669
LiTaBe17,6.0374,5.2081,-0.8293
SnHgPb2I,30.4023,30.6757,0.2734
LiBe17Mo,2.2061,2.5377,0.3316
KTlPb,30.9152,33.7831,2.868
LiBe17Os,2.7124,3.6158,0.9034
LiPaBe17,5.5048,5.2967,-0.208
LiBe17Nb,7.943,7.4103,-0.5327
Y3IrSeCl,38.5501,38.0454,-0.5047
Y2CoSi4Pt3,48.8911,36.1124,-12.7786
NaTeAsC2,41.6047,31.1093,-10.4953
YSc3Ni2,25.4028,23.953,-1.4498
AcLaB12,8.3233,9.0955,0.7722
NaCaTa2N,30.5407,28.4268,-2.1139
Pm3Y7Er2,19.2865,22.0006,2.7141
Ni2HgRhI,18.2151,15.6714,-2.5437
YSc3Hg2,5.8459,6.6154,0.7695
CrCd2Ni,24.2276,23.0977,-1.1299
Y3ScIn2,16.196,16.3777,0.1817
SrBe3Br,10.505,7.7621,-2.7429
ZnGeOsSe2,31.6169,28.1382,-3.4787
Y3Er2Sc,11.7983,15.096,3.2978
LiScBe17,2.4416,2.4529,0.0112
Y3ScSb2,23.0858,21.5985,-1.4874
LiThBe17,4.0954,5.2822,1.1867
LiTbBe17,1.9594,3.1541,1.1947
AgSb2Mo,34.4277,30.8603,-3.5674
YVTeI2,46.1209,39.0361,-7.0848
CdSbPb2,42.3568,41.6368,-0.72
Cd3Pd2Rh,23.393,22.3215,-1.0716
HfNp(UAs2)2,48.1252,44.6081,-3.5171
KTc2Br,48.408,39.7183,-8.6896
Ca6Sb2Ru,15.9136,14.1636,-1.75
CaYTeI2,24.4969,21.8972,-2.5997
PdPt4Rh,64.668,47.2148,-17.4532
Li2Y2Ga,3.6936,5.4265,1.7329
Rb2MgSnF6,11.6938,10.1241,-1.5697
CeY2S3,35.1588,28.8129,-6.3458
NbGeB3,32.0644,27.3691,-4.6953
TbY2S3,35.4558,28.6481,-6.8078
Sr(GaMo)2,6.9672,11.009,4.0417
TiPRh2I,27.5562,21.1243,-6.432
YSc2S3,43.3059,37.1391,-6.1668
Zr3Ga3Ni2,22.1745,20.4343,-1.7403
PmMgB12,3.2086,4.2749,1.0663
YTaTe2I,46.5224,39.2421,-7.2803
NbFeB,47.288,40.5218,-6.7662
CaInTe2W,30.8065,29.0623,-1.7442
LaPmB12,5.5192,6.2908,0.7716
Ca3PmY3Se8,45.9689,37.1426,-8.8263
LaPaB12,8.6095,9.2707,0.6612
CaNd3(YSe3)2,38.1356,32.3828,-5.7528
Rb2WSeI6,23.4418,21.8749,-1.5669
Tb4Y6Er,20.0534,22.0547,2.0013
Tl5Pt,54.265,51.2135,-3.0515
Li2YCdO,21.1176,18.8817,-2.2359
TbY7Er3,19.5051,21.1843,1.6793
LaTbB12,5.6743,6.2538,0.5795
Y3ScSi2C,42.548,34.9278,-7.6202
LiCeZn17,8.0392,8.809,0.7697
RbPb5,40.872,41.8079,0.936
LiZn17Cd,7.877,8.465,0.588
Hf2PRh2,68.5759,48.0674,-20.5085
MgUB12,6.456,7.558,1.102
K2TaPt,34.3956,29.793,-4.6027
Hf2TaCo2,83.8953,60.4679,-23.4274
CuTc2Ag,56.1831,47.5778,-8.6053
YMnIr2F,46.2392,42.4573,-3.7818
Ho2Co2Ir,1.7521,8.3105,6.5584
CuTcAg2,41.1157,34.3474,-6.7683
BaPt3Br,56.8251,41.0838,-15.7413
TaNbMo4,39.7293,38.8091,-0.9202
LiZn17Hg,7.3412,7.785,0.4438
Co2TcRh,32.7477,28.7306,-4.017
NpPaB12,10.0569,11.8361,1.7792
NdSmB12,3.6556,5.3654,1.7097
Hf2Zr2Co,89.1386,68.3665,-20.772
Tm2TlRh3,42.5011,36.6308,-5.8703
CaYInIr,28.6956,24.857,-3.8386
Y2TaCoMo,51.4427,39.7266,-11.716
BaPtBr2,28.5463,21.8591,-6.6871
Ac3Te2Rh,47.6576,48.934,1.2764
Ga3OsRu,18.5402,19.3362,0.7961
UPaB12,9.9522,11.7612,1.809
Zr2Nb2Co,88.4655,72.8798,-15.5858
Sn2SbAs,24.2785,23.9723,-0.3062
ReRh2W,35.4141,35.361,-0.0531
NdUB12,6.8648,8.6057,1.7409
AcB12Pb,8.7397,10.3684,1.6287
NdYCoRu,34.3337,32.2388,-2.0949
Tb6Cd3Os2Rh,28.763,30.1715,1.4084
NaYPbBr6,15.7942,15.4444,-0.3497
Ac2Pm(H4Pd)3,11.2672,12.3934,1.1262
PrSmB12,1.5489,3.2563,1.7074
YCo2RhF,33.1665,26.3444,-6.822
NbCrB,22.8828,22.9302,0.0475
HgTeRhI2,27.5471,23.9849,-3.5622
NaCuAs2Se,32.8893,28.4516,-4.4377
BaAcScS4,39.6991,32.7104,-6.9887
NbRu4W,50.4421,41.3864,-9.0557
La2ThCo2,29.6422,26.9383,-2.7039
NaTl2(CuI3)2,24.7737,25.0037,0.23
Hf2NbB,107.8159,80.5629,-27.2529
HoU2NbN4,37.4452,35.4334,-2.0118
NdY2Hg,31.3365,27.3011,-4.0354
Pr2AsI,4.5578,7.8418,3.2841
Ho3In3Rh2Au,31.4441,29.7779,-1.6661
SrPBr,11.8454,11.4079,-0.4375
BaScBS2,32.4788,26.0141,-6.4647
NbTcSn4,46.761,41.1867,-5.5743
Ga2HgTe,12.2643,12.9244,0.6601
La2ThUN4,28.7015,27.8275,-0.874
KLaCr2,22.6086,19.8868,-2.7218
RbSrB12,1.4594,2.9076,1.4482
Tm2ZrNbH,60.3133,52.107,-8.2063
Tb6Pm3Y2Er,24.2671,25.6703,1.4032
NaCrReOs2,33.5153,34.9494,1.4341
Rb2TcSeI6,27.8078,25.1114,-2.6964
Tb5(YEr)2,24.5144,26.5716,2.0572
NbReW4,55.8338,55.9424,0.1086
HoAlCd,16.4533,18.9611,2.5078
Tb2(YEr)3,22.9935,24.5832,1.5897
SrTmPd,20.1505,22.4814,2.3309
Pm5Y5Er,20.5503,21.7155,1.1652
Pm7Y2Er3,24.1797,25.9069,1.7272
SnPbF2,24.5978,25.3595,0.7616
Li3AgI,10.9525,9.644,-1.3086
LiYCo2C,34.5671,28.6344,-5.9327
TbTaCuO5,0.0,4.2952,4.2952
ZrNbHgI,65.7049,54.8844,-10.8205
Cu2Ni2Os,9.3769,12.6423,3.2654
CuNi2,1.2429,5.677,4.434
HgOsI2,19.5138,21.0966,1.5829
Sr2InRu2,15.8193,17.6462,1.8269
Pm4Y3Er4,23.6145,24.8685,1.254
BaMnI2,32.1374,28.1044,-4.033
K3(Tl2Pb)2,35.8733,36.262,0.3888
Sc2Cd2S,23.6949,23.0509,-0.644
TaCu2Pb,28.0251,29.0067,0.9817
PrScB12,0.2499,1.8591,1.6092
Cd2Tc2Ag,47.1634,41.5521,-5.6113
PmYEr4,21.1238,24.003,2.8792
Ba2Nb2Sb,62.6961,49.7118,-12.9843
Al2SiTe,26.2367,22.8628,-3.3739
Pu(PaCo)2,33.8796,37.7667,3.8871
Zr8Ti,88.9196,74.1336,-14.7861
SrSc2Sn,19.3775,17.3991,-1.9785
ZrV2As,83.9562,68.6219,-15.3343
Nd4TlPt,23.8725,22.7244,-1.1482
Sn(RuBr)2,19.433,16.5746,-2.8584
Pr2SmTh,20.4378,22.606,2.1682
Pr(AgSn)6,24.3985,21.5578,-2.8407
Al2SiTe,25.9451,22.8628,-3.0822
CuBi2Mo,40.6419,36.0541,-4.5878
Li2Er2ScPb2,24.3871,26.3503,1.9633
CrTeAu,33.0489,32.7902,-0.2587
Nb4Ga2B,85.9039,68.6947,-17.2092
MnCuP,42.749,33.989,-8.7599
Pm4Y2Er,17.5975,20.1034,2.5059
SmHoB12,3.9628,5.6394,1.6766
Pm3(YEr2)4,24.7053,25.5466,0.8413
PmY3Er4,17.6836,20.31,2.6264
Nd4PtPb,34.1356,32.7066,-1.4291
Li2MnCu,27.0513,22.9422,-4.1091
B(Ir3Pb)2,40.9477,42.5012,1.5535
LiMn2Cu,46.6153,39.1107,-7.5046
Nd2Co2Ru,0.0,1.7192,1.7192
AcNd4Tm,32.8865,34.4109,1.5243
Sm2Co2Ru,0.0,1.7906,1.7906
LuPaCrTc,50.6752,48.8423,-1.8329
SbTe2MoPd,36.0513,31.0283,-5.0229
LuPaFeTc,57.4539,52.6966,-4.7573
SbTe2PPd,31.2656,28.333,-2.9326
GaSbTe2Pd,33.7456,30.0213,-3.7243
ReSb2TePd,39.2393,35.8781,-3.3612
CrSbTe2Pd,32.6564,28.7088,-3.9476
Ca3HCl,4.0372,4.2612,0.2241
ZnInSi,15.4175,14.5058,-0.9117
NbB2C,45.4168,36.7682,-8.6485
CsK3Ni,13.7161,12.9072,-0.8089
Sm6YTm12,28.1132,29.0193,0.9061
SrAuS2,38.7879,32.8569,-5.931
In2Sb2Cl,23.5304,21.8072,-1.7232
Zn2CdSn2,13.1931,14.7856,1.5925
Hf(CoSn)2,32.46,26.7814,-5.6786
UNbB2,52.7924,48.9687,-3.8237
IrRuIN2,38.869,35.4256,-3.4434
PrAlGa2Pd5,14.086,13.7748,-0.3112
Cs2Rb3UO6,8.7656,9.8764,1.1108
Tb15Y4Er,24.2033,25.4808,1.2775
MnCrNi2,59.8254,53.8588,-5.9666
Ac2(LaSm)3,44.9203,40.3253,-4.595
Sc2GePd3,22.3134,19.0307,-3.2826
NdSmTh4,52.3692,54.9212,2.552
Hf2Tl2O7,26.4331,20.154,-6.2791
Al3Ag,6.555,7.667,1.1119
Mn2CrNi,79.046,67.5859,-11.4601
TiNbB2,36.5045,32.9114,-3.5931
AcLa4Sm7,37.443,33.5004,-3.9426
K2YbI6,20.9111,21.5189,0.6078
La(ScS2)2,43.3152,34.82,-8.4952
NdSm4Tl,29.1495,31.7719,2.6224
NbBW2,55.1598,52.1741,-2.9857
InCN,37.8434,30.2478,-7.5956
LiLaPrRe,22.0139,21.1395,-0.8744
CaSbP,35.3037,29.6983,-5.6054
NdMnI,42.7062,39.812,-2.8942
K(TcPt)2,68.9207,54.5243,-14.3964
Dy2TmRh3,37.8671,32.0427,-5.8245
SrNdB12,2.8269,4.6566,1.8296
NbBP,24.4513,24.2284,-0.2229
Li2Sc2H5,1.6378,2.2316,0.5938
Nd3Er2Tm3,28.1664,29.379,1.2127
CaHCl2,0.0,0.3879,0.3879
GePtN2,26.6464,24.1728,-2.4736
LaHfZr,98.0428,74.9212,-23.1216
Tb2Co2Tc,24.5841,26.132,1.5479
YCoAgSe2,45.4728,35.2653,-10.2075
TbPuB12,7.2149,8.9303,1.7154
TlSb2C,51.821,43.4071,-8.4139
ZnCrW2N,29.5873,29.6544,0.0671
Y2NpBi3,22.6359,28.6621,6.0262
TlSbC,48.0692,41.2442,-6.825
Sc2CrGe4,21.9987,16.6431,-5.3556
Ce6P3S2Br,22.6755,24.0742,1.3987
CeY2Ag3,24.1972,22.5023,-1.6949
CaTb2YHg4,12.9627,12.6071,-0.3555
AlTeBr3,16.0173,15.8111,-0.2062
CrPt2W,56.3855,46.1858,-10.1997
SiTc3N,60.947,49.328,-11.6189
Tm2ThCo2,27.6311,30.7962,3.165
Y2ThAu3,38.5386,40.5699,2.0313
AlTe2Br,24.6777,23.6,-1.0777
LuThN,32.7505,35.2458,2.4953
PaSb2Pt,54.4487,47.4379,-7.0108
Ir4Rh7,47.0387,39.4469,-7.5918
NiPtAu2,43.7544,41.1836,-2.5707
EuAl4Pb,15.3586,16.8136,1.4551
ZrSiSb,46.367,38.8616,-7.5054
LiCrAu,4.6159,7.3332,2.7173
NaNi2Rh,18.0156,16.0475,-1.9681
NbGaB3,35.3952,27.9024,-7.4928
BeCu2Ag,15.511,12.9896,-2.5215
Li2CrAu2,16.8173,17.982,1.1646
Y2Tm2Ir3,30.6015,33.5341,2.9326
Ce2TmGa3Pd4,20.0812,20.1176,0.0364
CoRhW2N,69.8671,63.3826,-6.4846
SrHgS2,20.1718,14.9461,-5.2257
SrTlB12,5.0659,6.5493,1.4834
Mn2TcGeN,60.1938,49.4501,-10.7437
SrSnB12,2.8785,4.4742,1.5957
Sr2SbPb,27.3966,28.4719,1.0752
CaTiCr2,23.0486,19.4603,-3.5883
SrNdGa2Pd5,17.6542,18.0417,0.3875
BeNb3B,86.0888,69.3955,-16.6933
Bi2Sb2Pd,39.8963,37.5924,-2.3039
Tl2SbBr4,31.3944,30.1035,-1.2908
Cr2TcNi2,33.7472,30.6957,-3.0515
NaYHgSb,29.5213,25.2247,-4.2966
La3Pm4,36.3336,31.109,-5.2246
MnAg2HgF6,16.2162,14.2325,-1.9837
SrTmB12,3.3149,4.9419,1.6269
ZrTcRu2,55.8743,50.9698,-4.9045
AlCu3N,13.6512,11.1789,-2.4723
Nd4NiBi2,30.0437,31.6234,1.5797
BaSr2Pd,8.175,11.0223,2.8473
Al2Te2Pb,28.4969,28.3095,-0.1873
Tm2GaN,10.3717,16.7307,6.359
SrUB12,6.0831,7.7836,1.7005
Re2Mo5,25.9115,26.5033,0.5919
CrTc3N,66.9209,54.7063,-12.2146
Nb3PbBr,104.7118,84.9118,-19.8001
Ac4PmNd,51.3703,53.151,1.7807
Be5(Nb2B)2,51.2933,42.0942,-9.1991
EuThN,31.0179,33.5621,2.5442
ThUB12,9.8064,11.6039,1.7975
Na2TaGa,45.3804,36.2456,-9.1348
Sr2MnBr,32.653,28.1674,-4.4855
PmSc4PbS8,48.7684,41.5173,-7.2511
PrPuIn2,26.4736,28.8237,2.3502
Cu2RhN,11.678,14.9985,3.3205
LuRh2Pb,45.4706,39.9569,-5.5137
Cu2TeAs,12.5874,14.1096,1.5222
HfPRh,64.4417,47.5916,-16.8501
ErTm2PaFe2,31.7758,29.9158,-1.86
Mn2Fe5,28.4638,23.7087,-4.7551
SrTmMg17,4.6067,5.3711,0.7644
SrYMg17,4.1686,4.4737,0.3052
LiCr2Au,11.8211,13.269,1.4479
Ba(YHf)2,76.4955,58.0236,-18.4719
NbFeB2,35.9512,31.7111,-4.2401
Tc2WN4,33.2083,29.4622,-3.7461
PmTiB12,2.531,4.1193,1.5883
Ag2SnSb,29.0353,27.5942,-1.4411
NdTiB12,2.5174,4.1065,1.5891
Na(ZnRu)2,10.3986,13.4944,3.0958
Y2NbOs3,50.1852,46.6403,-3.5448
Ni2PtAu,37.378,34.6766,-2.7013
Ho6In2HC,26.5733,25.5702,-1.0031
Ce(ZnCo)2,21.4195,14.6207,-6.7988
BeInN2,22.2823,20.5093,-1.7731
AcTlB12,8.602,10.3058,1.7038
LiAc2HgN,22.855,26.2606,3.4057
AlTc2IN,47.328,37.9946,-9.3334
YTaCo2Se,55.3626,41.7654,-13.5972
CsRb3Ni,7.6626,7.2879,-0.3747
TbNd3Y2,17.2092,20.995,3.7857
TmMgCd17,18.9024,19.4066,0.5042
TcAu2N,42.4732,43.1983,0.7252
SmZrB12,9.1442,9.4656,0.3214
CrW2I,28.3633,30.4665,2.1032
PaSn,43.8948,47.7812,3.8864
MnBeAg2,41.4404,33.5543,-7.8861
NaScB12,4.2513,3.6256,-0.6258
LiYTcSn2,58.207,49.998,-8.209
CsRbGa12,9.0657,9.4155,0.3498
LaTi2Cr,23.8396,21.4996,-2.34
Y6Mg23,5.6704,5.5145,-0.1559
Pm2Y3ErTe6,29.7786,29.4313,-0.3474
SrPaSn2,30.2316,33.034,2.8024
Ti2CuPb2,19.5482,22.5825,3.0343
CsBeN2,30.0778,26.0706,-4.0072
NaLiB12,4.0906,3.2716,-0.8189
MgZrNi17,10.7801,11.718,0.9379
LiAcB12,4.8891,6.3295,1.4404
KTiBi2,27.4514,28.9192,1.4678
RbBaHg12,0.0168,0.1335,0.1167
YPaMn17,93.1947,75.1081,-18.0865
MgZrZn17,12.2025,11.8739,-0.3285
NdY2Pd3,22.0248,21.4359,-0.5889
ErUMn17,94.1099,76.01,-18.0999
HoMn17Co,91.0689,72.5481,-18.5208
CePaMn17,93.7884,75.6559,-18.1325
YZrTe2I,43.5875,39.3356,-4.2519
Sr2TaPd2,21.0343,18.5135,-2.5208
PtAu2N,43.3697,41.0769,-2.2928
LaCr3,14.058,13.7033,-0.3547
TbCeMn17,91.6519,73.5649,-18.0871
Y2TmPd3,22.9342,22.4959,-0.4383
Th(ZnCo)2,29.5884,22.998,-6.5904
Hg5Pd,2.6918,3.3587,0.6669
Co2AsBr,14.1974,11.5116,-2.6859
PmY2Ho3,17.6603,21.0541,3.3939
LaNdCo4,16.777,16.7455,-0.0315
Cu3(NiRh2)2,25.5141,20.2542,-5.2599
CoAs3Br,15.9602,13.6877,-2.2725
LiYSn3,23.8464,20.2543,-3.5921
Cu(NiRh)2,17.8623,15.9914,-1.8709
SrP2Br,10.3943,9.9443,-0.4499
CsRb2U2O7,11.6699,12.29,0.6201
LiTl2V2O6,38.0128,31.8452,-6.1676
YbGaIr2,32.2571,35.3427,3.0857
Cu7(NiRh)2,14.5046,13.2814,-1.2231
CrNiPt2,52.6914,41.632,-11.0594
HfTe2Ir,67.9171,57.158,-10.7591
HfCd2Ir,51.8196,45.5654,-6.2542
HoNpMn17,94.1476,76.1183,-18.0293
AcTb3Dy7,30.7552,31.7203,0.9651
Cu2TcSb,38.3259,33.6746,-4.6513
SrBeW2,34.9878,29.1318,-5.856
Tb2YEr,24.1093,26.8926,2.7833
Y2ErRh3,25.7109,21.376,-4.3349
SrAl2Au3,22.6274,24.9491,2.3217
NaYInHg,23.4309,20.8891,-2.5419
SmPuTe3Rh,37.4543,35.9725,-1.4818
Cs(SrIn)2,15.8845,17.8028,1.9184
Y2PaSb3,17.2199,18.2259,1.006
SrBeW2,35.3692,29.1318,-6.2374
SrBeW2,35.0637,29.1318,-5.9319
TbY2Ir3,30.1269,32.8196,2.6927
Cu3W,9.2004,13.4733,4.2729
Dy(ThNi)2,27.5035,31.6729,4.1693
SrSmTm,23.196,25.6298,2.4338
SrBeW2,35.4529,29.1318,-6.3212
Sr6Re2N6O,43.7677,39.7243,-4.0434
ScPSe,28.0056,21.2752,-6.7304
TmPS,11.472,17.9814,6.5095
CdInIr2,31.5976,34.5262,2.9286
Gd2ScAg,23.6511,24.1511,0.5
Sm5ThSb4,36.3343,35.1416,-1.1928
Nb(B2W)2,32.6365,31.0552,-1.5812
Tl2InAg2,37.0458,34.8374,-2.2084
NiPtI4,31.295,27.9253,-3.3697
KScC,27.184,21.6251,-5.5589
MnTl2CoPb,54.1862,49.1648,-5.0214
Np(CuAs)2,13.9659,17.2317,3.2658
Fe3NiSe,29.4366,22.6922,-6.7444
TlInAg2,33.4228,30.6332,-2.7896
TmHfSe2,66.7036,52.4198,-14.2839
Tl(CuAs)2,12.9698,14.8899,1.92
NiP2,10.7102,10.5615,-0.1487
PmAlNi5Ge2,14.7861,13.5288,-1.2573
Tl2IrOs,43.0303,47.1272,4.097
NaSrSn,19.2374,19.1781,-0.0594
Pm4PrZn4,10.3945,13.0686,2.6741
Hf5BiSb,108.6127,79.2863,-29.3264
Sr2TlS2,32.617,27.4358,-5.1812
YSiNiN,39.5068,34.719,-4.7878
SrCu2S,16.7792,14.2164,-2.5628
SrBeW2,35.1958,29.1318,-6.064
AlBiTe2I,35.168,32.4005,-2.7675
Y2TlPb3,38.9967,40.5928,1.5961
ScTiCdS2,36.2837,30.355,-5.9287
Nd2Cu2Br,16.772,17.8459,1.0739
PmPdPb2,36.6245,38.9532,2.3287
Th2Pd2O7,16.3594,16.2314,-0.128
BeMoAs2Br,13.7647,12.0234,-1.7413
VGa3Si,34.4817,27.6267,-6.855
ZrCdPb3,55.4009,52.8857,-2.5152
K2SrI,14.527,14.4488,-0.0782
Cd2Cu2Sn,29.9218,27.4048,-2.5169
Fe2PIr,27.8063,29.0929,1.2866
ScTi2GaS,24.1542,22.7568,-1.3975
CrCuIr2,27.7357,28.5979,0.8622