Formula,E_hull_DFT (eV/atom),E_hull_ML (eV/atom),Delta (ML - DFT)
Sc2TiRe2,45.0112,34.4397,-10.5715
Na2CaCoF6,7.4815,8.0643,0.5828
Ce2Tm3Th2,39.181,41.9541,2.7731
Ge2RhSe2,27.9249,22.9024,-5.0225
AuBr2Cl,17.0302,18.7569,1.7267
Ba4TePt,22.0928,18.0976,-3.9952
SiAsBr2Cl,19.726,16.9532,-2.7728
ThSc3S,34.7154,33.6459,-1.0695
TaIn2Os,29.9498,33.0262,3.0764
MgAl2TlH6,6.9927,6.5887,-0.404
SrTa2Os,40.9017,38.5594,-2.3423
VP2OsS,48.3404,42.6655,-5.6749
Th2Ge2Se,32.4522,35.6314,3.1792
TaIn2Os,24.0868,33.0262,8.9394
SmY5Sc2,0.0,0.0,0.0
PmY5Sc2,0.0,0.0,0.0
NdY5Sc2,0.0,0.0,0.0
Ce3(TmTh)2,38.3732,40.9575,2.5844
Sm2Ge2Bi,23.9113,26.0519,2.1405
Ta3SnI,32.9411,34.4109,1.4698
ScCr2Ga,16.0371,13.7806,-2.2565
ScBeW,0.1776,3.7176,3.54
Tl6SeS3,48.8297,43.6609,-5.1688
Ta2InOs,33.9203,38.3816,4.4613
NbAgB2,39.0388,33.3681,-5.6707
Cs3HfSb,53.4113,42.2803,-11.131
ScBe2W,19.9942,17.0146,-2.9797
Mg(ZnPd3)2,9.2584,12.0245,2.7661
ZrPBrCl2,26.2413,22.6658,-3.5755
PmPrErSc,15.1938,16.7497,1.5559
Al2TcPd2,22.2603,20.6927,-1.5675
HfSc2RhO,90.1838,71.7143,-18.4695
Sr2ZrO,34.0375,29.1063,-4.9312
Ba2SrGe2,6.1365,7.9274,1.7909
Ce2Tm2Th3,44.2266,46.9905,2.7639
Ce3(TlPb)2,40.0195,41.7989,1.7794
Ba4PPt,21.2038,15.5116,-5.6922
La8Ce,43.7276,29.1445,-14.5832
ScBe2W,19.6549,17.0146,-2.6404
Hf3CdIr,98.9707,73.4822,-25.4886
Rb4PBr,5.3112,3.6092,-1.702
Tm3Pt2Au3,50.5708,45.1743,-5.3965
V3Pd2Rh3,70.8524,55.0957,-15.7567
Pa(TaGe)2,31.5258,34.9272,3.4014
PrTh,30.7045,35.2791,4.5746
Sc2GaAgS,28.5514,25.2335,-3.3179
Tb5Pr2Y5,16.5814,18.1851,1.6037
Pr5Sm2Y5,9.2278,10.2634,1.0356
ThBrCl,9.9113,18.0362,8.1249
NaSr2BeN2,18.7212,16.0269,-2.6943
Cs2Cd2Ni,18.9312,18.5388,-0.3924
CeSb,34.0353,31.8231,-2.2122
Y2InRhF,25.5445,21.2211,-4.3234
Sr3HfI,41.8966,33.4199,-8.4767
Pr8Dy2Y3,6.5299,6.8428,0.3129
Dy2CuSi,19.6913,20.0507,0.3594
V3Re2Mo3,56.9339,49.8299,-7.104
Sc2BeW,18.5591,18.0165,-0.5426
Sc4BiPbS,24.9742,25.1934,0.2192
Zr4GaP,64.3815,52.9462,-11.4353
AlInBr,11.7919,13.0066,1.2147
Pm4Te2PPt,33.1805,31.0821,-2.0984
TiPPb3,34.1544,34.7942,0.6399
K2BaBrCl,8.1878,7.6782,-0.5096
Ac3Fe5S12,24.3723,17.2042,-7.1681
AsPBr2Cl,15.5462,13.3786,-2.1676
Ta4AlNi,16.134,21.5322,5.3983
ZrTiSe3,43.472,34.6667,-8.8053
RbOs2I,29.4245,30.4981,1.0735
SmErTh,34.8591,41.7674,6.9083
Ta4GaP,45.0787,38.1865,-6.8922
Li(HPd2)4,11.0961,12.2773,1.1812
Y5HoEr2,14.0953,17.311,3.2158
GaAuC,34.6459,32.477,-2.1689
La4DyHo4,38.6193,32.6403,-5.979
KLiIr2Os,31.3916,32.0486,0.657
ScBeW2,26.9697,26.3779,-0.5918
Rb2Y(Cl2O)2,18.3438,18.4649,0.1211
KZrGa2,28.8286,25.6163,-3.2124
CdSbRu5,21.2416,22.3493,1.1077
YI2ClO,55.4655,49.6158,-5.8497
YClO2,39.3115,38.0592,-1.2523
Na2LiTe2,23.1526,21.149,-2.0037
Fe3(PdRh)2,19.1887,16.8457,-2.343
ZrSc2AlS,42.3803,36.1664,-6.2139
Y2Cl2O,57.6849,54.1074,-3.5776
CsCaTa2,23.1245,26.4194,3.2949
Pa2Zn2Fe3,36.8792,31.8037,-5.0755
Tc2MoPb,63.8996,57.5324,-6.3672
YBrCl2O,35.1204,33.1183,-2.002
NbSbAu2,70.7223,63.3097,-7.4126
Eu2GdGa,23.5122,25.4842,1.972
EuGdGa2,18.1026,19.9907,1.8881
Rb2Na4Te,20.3858,17.0139,-3.3718
PmHoPd4,19.9577,22.3972,2.4395
Ga2Ni2Ge,10.9617,10.1766,-0.7851
ScBeC2,27.5124,18.9107,-8.6017
Hf2Zr3Fe2,83.263,64.9306,-18.3324
Ni3SbRh,27.2732,21.0532,-6.22
Na2CaCuF6,7.583,8.0541,0.4711
Fe2Pd3Au2,21.167,23.3117,2.1447
K3Ba12Au5,6.5242,8.3135,1.7893
Tc3(GeMo)2,46.7052,41.5153,-5.1899
NdY6In,16.8332,17.549,0.7158
Dy4TlPd,14.8309,19.7512,4.9203
Ga2Ag2Au3,31.547,30.1917,-1.3552
BiPd4Pt,35.6988,33.312,-2.3868
TbTa5Ag2O15,2.2109,3.5584,1.3475
YHgAu,23.9607,23.5099,-0.4508
NaCuTc3,64.6534,53.0065,-11.6469
Fe3RuI,23.8396,18.2207,-5.619
Ga2Pb2Au3,37.5899,38.7405,1.1506
Cu2TcMo,42.2341,33.2451,-8.9891
PuVSe3,44.6863,37.8953,-6.791
TaMn(Cu3S4)2,39.3957,30.368,-9.0277
NaCu3Tc,28.5662,24.3076,-4.2586
SmTmPd4,14.7644,18.7167,3.9523
CaCr2Tc,39.0445,32.0365,-7.008
Cu3TcMo,36.879,28.3584,-8.5206
NaHgPO4,0.0,0.0,0.0
Cs2Rb2Ca,10.8254,10.9042,0.0788
Pr(NdIn)2,12.1036,15.4621,3.3585
Pr(HoIn)2,13.6825,17.3248,3.6424
SnBi3Pb,48.0389,48.6019,0.563
TmAg4Hg,23.1635,19.4106,-3.7528
CeTmNi,24.054,24.7523,0.6983
LaIn2Fe,25.6151,20.3484,-5.2667
Ga2Ag3Sn2,21.8232,19.164,-2.6592
CaCrNi2,21.3412,17.3364,-4.0048
ErSc3Ni,11.1666,11.9028,0.7362
TbPaPd4,20.1609,24.4855,4.3246
RbNa2AgGe,19.6364,14.9044,-4.732
LiTa3W,31.0504,34.55,3.4996
BaMoIr2Br,25.3511,24.7266,-0.6245
Ta2BeTe,31.8827,32.9573,1.0746
Cs2ScAlS4,33.7755,28.8874,-4.888
LiTaW2,29.056,33.3363,4.2804
SiMoAs2Br,21.6467,19.1408,-2.506
TlBiPd4,29.2346,31.2074,1.9728
Mg2UTiH6,10.0948,10.68,0.5853
NpRuN,61.3528,57.5704,-3.7824
Tc3PRu,60.3342,51.4112,-8.923
SrMoC2,39.1884,30.4919,-8.6965
Li3Ta,9.8386,11.9908,2.1522
TaTlCr,66.5637,52.6653,-13.8985
ScCoBRh2,29.8244,24.9823,-4.8421
GdHgPdPb,24.3768,26.6772,2.3005
Ac2(Al2Hg)3,13.1113,14.2972,1.1859
CaCrW,30.5848,28.6019,-1.983
TmPd4Au,19.27,22.3898,3.1198
Cs3Co5Br12,6.7369,4.7297,-2.0072
ScPbS2Cl,48.5946,40.4928,-8.1018
Ga2Cu2Bi,19.6219,18.4542,-1.1677
AlInAs2Br,21.0598,17.5408,-3.5191
Ir3Rh(AuS2)4,51.1254,43.634,-7.4914
YTmPd2,21.5325,21.3188,-0.2138
InTcBr2,34.3181,30.8344,-3.4837
LiTa2W,28.4924,32.6281,4.1357
SnBi(PbS2)2,50.5923,42.9556,-7.6367
InPtBr2,34.3957,27.4976,-6.8981
InPbBr4,24.8485,22.7722,-2.0763
Ba4AgPd,5.0695,5.2603,0.1908
Sm3DyCd4,22.0824,23.918,1.8356
Sr2AgSbS4,35.8142,27.6287,-8.1854
MgIn2SnBr6,12.3515,13.2572,0.9057
InCu4Br,12.0458,12.4604,0.4146
InRuBr2,20.2467,17.9121,-2.3346
Ga2CuBi,21.4435,21.3122,-0.1313
YErSnAu,37.8783,34.8053,-3.0729
AlMoAu2,33.2684,32.7488,-0.5196
TaTl2Cr,62.9075,52.1062,-10.8013
ZrPb2I,52.8747,49.6788,-3.1959
LiYSn,25.4823,20.0621,-5.4202
LiYSn2,20.1777,17.3598,-2.8179
InPtBr,41.0643,32.5593,-8.505
Al2MoAu,17.1044,18.4214,1.317
Pa2Tl(PdS3)2,50.0604,42.4997,-7.5607
Tb2SmSb,30.2918,30.0445,-0.2474
InNiBr3,11.7938,12.3202,0.5264
Cd2NiPd,17.39,17.8404,0.4504
AlMoAu2,33.3371,32.7488,-0.5883
Na2In4Si,20.6825,18.8284,-1.854
SmPaSb2,44.8308,42.8172,-2.0136
SbRuSe2,34.6458,29.543,-5.1027
Zn2InSbBr,24.8716,23.1272,-1.7445
TbSm2Sb3,34.0436,30.5907,-3.4528
InIBr3,15.4087,16.0852,0.6765
Cs(YGa)2,10.6951,12.5947,1.8996
SbC2O,46.289,35.7472,-10.5418
NbZn3B,39.2701,31.4642,-7.8059
Tl2In2Pb,38.7928,39.8552,1.0624
InIBr,9.809,15.7805,5.9715
BaScS2F,30.7025,25.8819,-4.8206
Li3YSn3,14.172,12.0573,-2.1147
In2BAu,19.0371,21.8453,2.8082
SrGdAgPb,31.2647,31.3044,0.0396
Cs2RbSbCl6,7.1473,7.8303,0.683
LiLa2Zr,46.3681,36.6452,-9.7229
CdTc2Mo,55.2709,49.0288,-6.2421
TaCrW,62.7926,50.4323,-12.3603
AgSb4Pd,34.1781,27.0226,-7.1555
InTcBr2,34.3281,30.8344,-3.4937
TlSb3Ir,47.5797,41.4911,-6.0886
Dy2LuSb,32.8046,32.5753,-0.2293
PrHo6Sc,21.3015,22.9795,1.678
Zn3InBr,11.4434,11.4978,0.0544
InSiAsBr2,22.4006,19.6101,-2.7904
InFeAsBr2,26.4412,22.796,-3.6452
Hf2ScGe2,64.4636,45.7166,-18.747
Cs2Ba2Sr,11.5698,12.5773,1.0075
InBiAsBr2,21.7129,22.2068,0.4939
NaIn3Br,19.2651,18.4436,-0.8215
Zn5Cr2,9.9804,8.4495,-1.531
Na(CdOs)2,30.1746,31.035,0.8604
NaCd2IrOs,31.3101,31.0602,-0.2499
ZnInBr2,12.2302,13.4779,1.2478
In2AsBr,15.3128,16.1654,0.8526
TiNi2I,14.4206,13.9969,-0.4236
CdTcMo2,35.949,34.5876,-1.3614
Cs2BiAuF6,18.465,19.4589,0.9939
AcLa3PrNd,35.4671,28.641,-6.8262
LaFeAu,33.0323,30.038,-2.9943
Cs2Hf(SiO3)3,5.8384,3.82,-2.0184
CrInAsBr2,23.7909,21.5525,-2.2384
Cs2Hf(Si2O5)3,1.716,1.1469,-0.5691
K3Sn2Bi5,31.6753,32.3502,0.6749
TaZn3O3,28.8872,20.5134,-8.3738
Er2ScAl,17.2682,19.5026,2.2345
CdIrOs2,37.1129,41.3578,4.2449
CdIrOs2,37.159,41.3578,4.1988
Hf4PdPt,113.0548,81.4592,-31.5956
CdIr2Os,37.2421,42.4993,5.2572
AgTe4Pd,36.1156,34.1335,-1.9821
TmInBr3,12.1685,15.5061,3.3376
InNiBr2,12.713,13.7113,0.9983
Rb5(AsS3)2,36.3691,26.4932,-9.8759
Pa2InS6,53.766,43.9115,-9.8546
YEr2Tm,25.8325,28.8746,3.0421
In2TcCBr,42.9212,35.0106,-7.9107
U3Tl5S12,40.6562,32.2171,-8.4391
CeMgAlZn,14.5299,11.9786,-2.5513
Tb2Er2In,22.2073,25.2534,3.0462
UPaTa,57.6288,62.2397,4.6109
InOs2Br,29.84,32.0412,2.2012
GdInBr2,17.3682,19.1159,1.7477
TlCoAs2,24.268,23.3267,-0.9413
AlPbSe2,37.6925,33.8923,-3.8002
InAuBr,26.2151,27.6278,1.4127
InAu2Br,31.5423,32.9095,1.3671
AlPbSe2,37.4202,33.8923,-3.5279
InAs2PtBr,29.9191,24.2333,-5.6858
In2GePtBr,30.2518,25.0705,-5.1813
NaTm(InBr3)2,15.1226,13.5929,-1.5297
InCoPb2Br,36.098,32.0773,-4.0207
Sr2MnRu,31.239,28.3094,-2.9296
PrSc2V,34.1184,29.2542,-4.8642
InNiAs2Br,19.2989,16.8489,-2.4501
Cd2Cl,12.4752,14.3123,1.837
Pa4RePd,44.8313,49.8997,5.0684
ZnIn2NiBr,12.814,13.8913,1.0774
InCoAs2Br,16.4144,14.2925,-2.1219
AcScAgRh,37.1748,33.6347,-3.5401
La2PrIr,35.3184,28.7563,-6.5621
SrLa2InBr,30.8277,23.0282,-7.7994
Pm(Er2In)2,21.5855,24.507,2.9215
La2Tm2In,36.7281,31.7411,-4.987
Nd2Tl2In,30.0328,32.944,2.9113
VNi2Rh,47.4956,39.0044,-8.4912
NaIn2PbBr5,18.7586,17.6838,-1.0747
NaSrIn2Br5,11.4484,11.2514,-0.197
In5Br,18.4443,19.3513,0.9069
Zr2AsBr,53.8739,46.8026,-7.0713
LiErSn,7.9548,12.7129,4.7581
ZrSc3As4,37.1088,28.3876,-8.7212
Y7Er2Tm3,20.7179,22.71,1.9921
Mn2BeRh,55.0558,42.4798,-12.576
RbNaTe2,27.2197,25.0658,-2.1539
TaCrRu,23.3474,20.4667,-2.8807
Cs2KSmF6,5.6092,8.4722,2.863
Cs(NaSn3)2,21.8878,21.6639,-0.2239
CaIn2Mo,15.3515,17.2184,1.8669
DyThSe4,40.5775,38.076,-2.5015
In2As2Br,11.1521,12.623,1.4709
AlTlPt,47.4734,40.7963,-6.6771
RbIn2SbCl6,10.1565,10.0493,-0.1072
CsNaSn4,21.9261,21.5185,-0.4076
TlGeMo2,16.944,20.9856,4.0416
Th2Co3SiNi12,25.8428,22.6447,-3.1981
NaSr2Tb,19.6739,19.747,0.0731
NdGdTe,31.2359,33.0161,1.7802
Th2Co12Si3Os,16.3211,17.689,1.3679
SrPdAu6,39.2569,40.3509,1.094
SrIn2Br,17.5176,16.9214,-0.5962
In(BiPt)2,56.5178,48.0755,-8.4423
K3Na2In5,16.4159,15.6528,-0.7631
In(PtPb)2,55.8574,47.1568,-8.7005
AgAs2Ru,22.1929,17.1117,-5.0811
InCo2Br,17.7675,15.0366,-2.7309
Cs3InI8,22.3831,22.8118,0.4287
ScIn2Mo,19.0828,20.678,1.5952
Tm3Mg12Zn5,4.6654,5.7308,1.0654
AgAsRu2,22.0684,19.6961,-2.3723
InFeBr,14.508,12.2107,-2.2973
InTc2PbBr,61.5021,50.8096,-10.6924
AgAsRu2,21.8593,19.6961,-2.1632
InAsRuBr2,18.7836,16.8694,-1.9142
InNi3Br,10.6913,11.9784,1.2872
AgAsRu2,21.7678,19.6961,-2.0717
CaNi2Ir,22.7625,18.9957,-3.7668
Na2InSiBr,19.234,15.804,-3.43
KScNi2,4.2702,7.0473,2.7771
Ca2Y2W,23.1199,15.2678,-7.852
TaAg2Br,24.4986,23.2943,-1.2043
AcPdI4,28.1201,28.9593,0.8392
SbRuAu,36.7729,35.6926,-1.0803
CeYTm2N4,24.9756,25.0983,0.1227
Co2Sn6Rh,15.4903,15.6831,0.1928
YMnPbSe4,44.7202,37.6405,-7.0797
Tl8S6Cl,49.9239,43.3154,-6.6085
AgSbPt,55.2451,40.6345,-14.6106
GdYHg,26.2796,23.3497,-2.93
TaAsOs,29.9626,34.7291,4.7665
FePtSe2,47.0515,37.9819,-9.0695
Sm5Pb3S,31.4858,32.7893,1.3035
YTm2(PuSe2)3,46.7292,43.1619,-3.5673
NiCl2,0.8347,4.0058,3.1711
CoSi2As,22.1754,18.3501,-3.8253
CoPOsS,27.7373,24.0552,-3.6822
NbAlAs3,45.8332,36.9282,-8.905
Th4IrPd,45.8027,50.0057,4.203
ScTaAl,86.9678,72.2917,-14.6762
Th2MgZn3Pt4,51.0467,41.2028,-9.8439
TmScCdS4,38.5263,33.6855,-4.8408
SrCu2Ge,5.1574,8.1974,3.04
CoGe3Te,15.2469,15.8364,0.5895
Cr6Sn2HC,21.6755,19.3512,-2.3243
NaLiSi2Tc,35.1967,27.6727,-7.524
Na(AgRh)2,37.4811,27.4192,-10.0619
Ca2NiPbSe,42.2692,34.569,-7.7002
BeIn2GeSb,19.1477,18.0599,-1.0878
Li2Ac2LaTl2,40.2526,39.5785,-0.6741
Th2SnPt,59.8234,56.4245,-3.399
ThSnPt,58.3711,51.2359,-7.1352
YTm2Hg,27.7249,26.234,-1.491
Pr4PdPb,3.0199,6.2309,3.2111
Zr3Zn2Cd3,45.8354,39.9959,-5.8395
Cs2NaPmCl6,10.2466,11.7296,1.483
GaAgPb,21.3535,21.6071,0.2535
K2Ag2Au,26.6676,23.5587,-3.1089
SiSb2Ir,37.3656,31.9566,-5.409
Li2BeCu,6.2915,4.7699,-1.5216
PmSm2DyBi5,41.6087,42.8875,1.2788
YLuSe3,19.978,16.2178,-3.7602
SiSbIr2,36.5191,35.5832,-0.936
Tm4SbPd,25.4056,25.758,0.3525
Nd(P2Ru3)2,11.6297,14.1302,2.5005
U2PaS6,59.1435,49.5424,-9.6011
NbAlSi2Au,53.5527,44.0608,-9.4919
ZnBiIr3,43.8237,42.0766,-1.7471
PmPu2S3,45.1723,40.3092,-4.8631
Li2BeCu,6.3689,4.7699,-1.599
ZnBiIr,26.5396,27.9866,1.447
Y6Er2Tm3,21.2814,24.5988,3.3174
Sc2TaAl,67.1394,55.5491,-11.5903
RbTbS14,51.1786,37.3246,-13.8541
NbTeCl3,39.1345,33.2087,-5.9257
Ba2Tl(SI)2,28.6868,24.8517,-3.8351
CaMoPb2,31.7941,33.7528,1.9587
Er3(GaSn)2,20.3092,22.3378,2.0285
Ba2Sr3Ga2,10.6097,9.2709,-1.3388
BaAc2Sb,43.1049,42.0083,-1.0965
CeTh3(NpS3)2,56.9441,50.4014,-6.5427
LiMn2InMo,48.7033,38.9461,-9.7572
Ac4TlPd,40.9007,45.1099,4.2092
AlMoOs2,30.4063,31.7012,1.2949
CsGa3,9.7813,11.9371,2.1558
Tc3B,2.0166,6.5297,4.5131
HfSn3Sb,51.2933,40.4862,-10.8071
BRh3,0.0,0.0,0.0
CeGa3,7.8534,10.7179,2.8645
Pr3BS6,24.9389,17.9181,-7.0208
TaAsOs,29.8078,34.7291,4.9213
VCo3Ru,25.4494,25.2482,-0.2013
TaAs2Os,25.0806,28.9492,3.8687
Tm2GeI2,22.135,24.0479,1.9129
Ce2ThS3,45.7323,40.4578,-5.2744
ScSnAu,34.2463,30.8916,-3.3547
Tl2GePt2,57.8397,47.96,-9.8797
Ga3SbAs,16.6981,15.0854,-1.6128
LaMg2InH8,8.2071,6.9052,-1.3019
ScB3Pb,13.6526,15.0897,1.4371
Re2TeAs,33.6597,37.4661,3.8063
K3Na5Hg2,14.6681,11.8585,-2.8096
Na2Pb2Br,36.233,32.4157,-3.8173
NaBeSbI2,31.5694,28.4363,-3.1331
Pu2GePt2,55.8531,47.8185,-8.0346
TiPbSe2,37.7065,34.9531,-2.7533
Ba4PRh,10.7752,8.952,-1.8232
Hf2(ZnIn)3,46.0829,36.147,-9.936
RbPAu4,33.4753,33.3939,-0.0814
Rb2InAg2,15.3167,12.4348,-2.8818
Rb2In5Ag4,20.7783,18.2404,-2.5379
Mo3RhI,25.3297,23.4105,-1.9191
LaPaP2Rh5,40.2069,31.0367,-9.1702
Nb3HgTe,95.0329,78.816,-16.2168
K4YBi3S8,41.4405,34.3516,-7.0889
CeTm4Pu3S8,49.2156,42.9701,-6.2455
Bi2OsI,44.5982,46.1308,1.5327
Ge3MoRu,13.9258,14.6676,0.7418
Y2Er4Tm5,27.1535,29.4548,2.3014
Np2TlS4,51.1289,43.6119,-7.517
Y2ErTm12,23.7273,26.3188,2.5915
CeGdPd,23.7055,26.1684,2.4628
La3RuI,43.6143,30.3203,-13.2939
Be3Fe5,13.6121,9.4577,-4.1544
Si3SnRh3,25.281,15.5135,-9.7675
Tm2(ZnIn)3,17.6678,19.0503,1.3825
Cu3(AgSe)2,22.1472,18.9262,-3.221
Ti4GaP,2.8696,4.8804,2.0108
Ca6Ac2Sm,20.5496,22.2116,1.662
Ho2IrPb2,40.5856,43.7375,3.152
Sr2Mg(ZnAg4)3,24.1072,18.9429,-5.1644
Er2Tm2Cu3,19.8798,21.7852,1.9055
Np2(ZnSn)3,28.1377,29.6414,1.5037
LaCe3S4,42.1413,33.2364,-8.9049
Cs3Nd2BiS6,41.6685,35.0125,-6.6561
Ho2TmHg2,13.7204,17.1076,3.3872
Gd2SiRh,29.9895,26.8562,-3.1333
ZrGeBi2,49.6707,47.9762,-1.6946
FeRuSe2,45.9075,36.3197,-9.5878
Ac2HoTl2,40.1038,44.5464,4.4425
CaHgRu2,9.7126,11.6258,1.9132
Zr4ZnP,59.3718,49.4983,-9.8735
Ho(ThIr)2,40.4062,46.0631,5.6568
PIBr4,13.2208,13.0267,-0.1941
NbSnAu2,64.1651,59.0976,-5.0675
Ce2YTmN4,24.341,24.2273,-0.1137
NpTl2InCl6,16.0378,18.2454,2.2076
Rb3Ac(BiS3)2,42.221,35.1711,-7.0499
Rb2NaBiBr6,13.9436,14.4412,0.4976
Zr14(CuS8)3,65.9455,50.1906,-15.7549
La(MnAl2)4,36.104,28.5272,-7.5768
CeSbIr2,38.7218,39.7272,1.0054
Sb2PbAu,47.5787,43.0504,-4.5282
Ca4CoPb2,20.6586,20.8126,0.154
NaTa2ZnIr,35.1644,32.8078,-2.3566
FeSbSe2,45.8329,37.3512,-8.4817
Ta6AlBi2,37.2441,41.0315,3.7874
Y12ErTm3,17.9955,19.4588,1.4632
CaCoPb2,32.5715,32.0092,-0.5623
PICl4,8.6783,7.9894,-0.6889
Ca2HgRh,12.091,10.018,-2.0731
KMnTe2,48.4523,41.0553,-7.397
ScGaSi,15.3597,14.3292,-1.0304
La2TlI2,39.0401,33.5117,-5.5284
Ba2BeHg,2.7002,2.3176,-0.3826
KMn2Te,63.8492,50.9425,-12.9068
KRb2PPd,12.7697,10.2421,-2.5276
MnPt,94.2843,70.7706,-23.5136
Co2Re,8.6667,18.9203,10.2537
Pm2SmDyBi4,39.1426,41.4347,2.2921
PmAsRu2,25.6389,23.6958,-1.9431
Nd2NiSb4Ir3,37.8437,34.3506,-3.4931
NaLiSe,13.0367,11.197,-1.8397
SbPd2I,27.0677,25.01,-2.0576
AgPd4Pb,25.6805,26.298,0.6175
FeNiAu2Br,41.0523,35.807,-5.2453
YScAu2,22.6703,27.0668,4.3965
Pr2TlI2,16.4999,18.5158,2.0159
K2PRu,6.7593,7.889,1.1297
Hf4GeRh,97.0103,68.3484,-28.6619
BiPd4Au,28.6588,30.888,2.2292
Rb2BiBr,16.5955,17.3217,0.7262
NdSm2(YS2)3,36.0759,29.2835,-6.7924
Be3VNi,28.6138,23.5642,-5.0496
Sm2PtI2,35.8501,31.7103,-4.1398
HfU6HAu2,65.2299,62.5427,-2.6872
BaBeHg,2.4019,2.3724,-0.0295
Be(VNi)2,47.3704,39.5162,-7.8542
NbVRh3,74.5525,57.3233,-17.2292
CdPd4Au,22.7354,24.6765,1.9411
In(PC)2,27.6751,20.0553,-7.6199
ZnAgPb,26.0481,26.0891,0.041
Sb2Pb2Au,48.6137,45.1142,-3.4994
AgSbPbAu,44.0911,40.3923,-3.6988
Fe2HW,11.7773,13.9685,2.1912
BeSI2N,39.9689,32.265,-7.7039
Mg2MnAlH8,13.1555,10.0671,-3.0885
BaBeHg,1.8028,2.3724,0.5696
Nd3Sm3YS8,39.0999,31.9605,-7.1395
Cu(PC)2,26.9997,17.1227,-9.877
Tl3Ag3(SbS3)2,36.9308,27.7116,-9.2192
PuCdPd4,26.6957,28.687,1.9913
CdPd4Pb,23.557,25.5356,1.9786
Y2TlS,40.6792,39.0529,-1.6263
Ca2SbPt2,42.2667,30.191,-12.0757
CaY(TeO4)2,22.3925,19.9464,-2.4462
CeY3(ScP3)2,35.1151,26.326,-8.7891
Cd2In2Bi,24.4387,26.1655,1.7268
YNp2S5,45.0988,37.9229,-7.176
NaNbPt2,80.7093,62.347,-18.3623
Cu(Ni2Sb)2,23.1619,18.7563,-4.4056
CsSnP,12.1457,14.6842,2.5385
YNb2S5,71.5138,55.7992,-15.7145
Na2NbPt,66.8406,52.9856,-13.855
VTe3Pd,49.3997,42.9292,-6.4705
Sm2Cu(SiNi4)3,9.8905,10.051,0.1605
CeY(PaP2)2,28.9734,28.6866,-0.2868
Na2SrSc2,15.1049,14.0214,-1.0835
Ca2YMo,23.2146,16.6995,-6.515
CePd4Pt,30.3326,28.3556,-1.977
PRhS2Br,36.8324,29.9868,-6.8456
La2In2Bi,34.5886,30.0771,-4.5115
CdInBi,23.8031,26.6929,2.8899
AlTc2Sb,53.2319,43.8168,-9.415
SrAl2ZnAu4,26.7303,28.1105,1.3802
SnGeSb2,30.0258,26.0709,-3.9549
BiTeP2S,33.9447,33.2686,-0.6762
TiGa2Au,23.4189,19.4423,-3.9766
Fe2Cu2Pt3,61.5841,45.3455,-16.2386
CdSbPtN2,32.2644,27.1781,-5.0863
AcLa3Nd,44.5228,36.185,-8.3378
Ga2Fe2Co3,18.8965,14.7717,-4.1248
AlTl2Se,38.0843,36.5204,-1.5639
MnSe2,65.3031,51.0936,-14.2096
RbZrSb2N,46.352,37.7361,-8.616
ZrPaBi2,68.5334,66.7087,-1.8247
TaGeSb3,36.7786,31.1838,-5.5949
In2BiBr,23.5996,25.0067,1.4071
Th3(FeGe)2,30.5022,33.3377,2.8355
K2NiHg,7.6947,7.6465,-0.0482
InSbI2N,23.8823,21.1676,-2.7147
AlTlSe2,37.7396,33.5671,-4.1725
Tc2GeP,49.4039,43.1291,-6.2748
Cs(GeCl2)2,4.0549,5.3589,1.304
Sr2MnTc,55.7412,45.8565,-9.8847
Fe2Ni2Pd3,34.651,28.1079,-6.5431
InPd4Pt,29.7863,27.078,-2.7083
Tl2ReSb,47.7349,46.1198,-1.6151
Cs2TlIn2,25.7601,26.5478,0.7877
Ce6Ga3Au,16.9024,19.1655,2.2631
Sm12Tl6Ge,32.1073,33.5153,1.408
Th3Zr2Bi3,62.6954,60.9815,-1.714
NaSr2Sc,14.46,14.3931,-0.0669
SrZr,34.5679,31.1316,-3.4364
Y2USe5,40.8496,35.8585,-4.9911
Pr2Cr(ReN3)2,66.0208,56.574,-9.4468
Y5Ir3,0.0,5.7766,5.7766
VPd3Rh,39.8527,34.212,-5.6408
Tl2Si2Pt,39.7307,32.709,-7.0217
Zr2(IrRu)3,52.9872,44.7854,-8.2018
Ca3Os,14.7008,16.4815,1.7807
Sr2MnTc,55.7383,45.8565,-9.8818
Mg(IrRu)2,23.8458,22.9347,-0.9111
Fe2Pd3Rh2,21.7091,19.4159,-2.2933
DyPu7S8,59.8307,53.4942,-6.3365
UNbN2,51.7383,49.1344,-2.6039
Sr2YNi2,40.0652,34.171,-5.8942
Tb2PrTi,13.8078,16.9876,3.1798
Tl3IBr,37.1308,37.4059,0.2752
HoErPd4,14.9951,19.0186,4.0235
PrSmRu,30.4458,29.4576,-0.9883
ThCoIr,21.6319,31.9259,10.294
HfInPd4,38.4659,33.5514,-4.9146
BiSbTe2N,37.5941,34.7941,-2.8001
Dy2Ge3Rh2,25.0344,22.0667,-2.9676
DyPa2Re,50.8096,55.4101,4.6004
Y2ScPdO,66.6259,56.9432,-9.6827
K2NpTe4Pb,38.6119,37.9739,-0.638
ScVTc2S,105.2697,83.7504,-21.5193
YTcHg2,61.6335,51.2219,-10.4115
HfScCd,56.1952,43.4789,-12.7163
Y2ScPdO,68.048,56.9432,-11.1048
LiReTe2,31.3664,31.0055,-0.361
SmUCo4,19.6181,22.7459,3.1278
Cd2AgAu,29.1944,28.064,-1.1305
BaCaHf2,74.1024,53.4154,-20.687
Fe2BiPb,27.1181,26.8149,-0.3032
Be2CuGe2,7.0754,5.896,-1.1794
Si2AsRu,27.9045,21.2876,-6.6169
RbNbGe2Cl,38.3124,30.8101,-7.5023
SiAs2Ru,26.267,21.2733,-4.9937
ZrAg2I,42.5813,36.299,-6.2823
Si2AsRu,27.5993,21.2876,-6.3117
Rb2CrSbBr6,20.2926,18.1545,-2.1381
RbGeSbBr6,17.2271,15.996,-1.2312
SiAsRu,28.3963,24.507,-3.8894
Cd3(Ag4Au)2,31.0907,26.4506,-4.6401
RbAcS2,37.9345,33.4015,-4.533
K2OsN,32.6012,29.5021,-3.099
LaDyMgCu,26.9539,21.681,-5.273
CdAgAu,32.5784,30.9685,-1.6099
BaBeHg2,1.6345,1.7074,0.0729
LaCuSb,33.7713,22.7633,-11.008
Cd8Ag2Au,23.9129,23.03,-0.8829
NbVNi2,70.698,59.4627,-11.2354
SrNbC3,68.3493,51.2802,-17.069
Ti3Cu5,6.0697,7.7371,1.6674
LaCu4As,14.6258,13.2821,-1.3437
MnBe2Tl,38.071,33.5687,-4.5024
CsIn2Ir,26.9366,28.9481,2.0114
Cd2Ag7Au,30.6434,25.3293,-5.3141
Ti6BiIr,15.7228,19.5417,3.8189
IrWAu,44.2189,48.1647,3.9458
IrW2Au,42.3022,47.2316,4.9294
Y2AgPd5,26.6055,22.8403,-3.7653
Y2TlPb5,42.3864,43.8782,1.4918
RbTl2S,36.9092,34.2,-2.7092
YCuTeAu2,41.6963,38.1534,-3.5428
LaCe3(DyTe3)2,34.7821,33.1778,-1.6043
SrTlNiS3,37.7509,30.1165,-7.6344
LiCuIr,11.6524,16.391,4.7387
IrWAu2,44.5653,48.1332,3.5679
K(SbIr)2,37.6813,34.8374,-2.844
Li2CuIr,12.8241,14.8793,2.0552
Na3MoOs,30.997,25.1711,-5.8259
CaSc2Ta,70.6532,57.0788,-13.5744
Li2CuIr,12.7454,14.8793,2.1339
ErTh4Sb5,50.8591,47.4847,-3.3744
MnVS,86.6515,66.4605,-20.191
Ba(GeSe)2,22.3603,19.8697,-2.4905
Li2Re2P,26.3408,24.3121,-2.0287
Cu2OsW,87.4734,70.1466,-17.3269
Tb(Y4In)3,17.0659,17.0743,0.0084
CuOsW2,95.349,79.5403,-15.8087
ScBSBr2,24.9423,22.6967,-2.2456
LiTmInCo,15.2717,16.5482,1.2765
Cu3AsRh,16.9919,14.6363,-2.3555
CuOs2W,96.1283,79.4,-16.7284
ZrTiFe2,20.6724,18.3708,-2.3016