Formula,E_hull_DFT (eV/atom),E_hull_ML (eV/atom),Delta (ML - DFT)
Pm2CuIr2,28.0949,31.6738,3.5789
KSbPb2,40.4589,38.75,-1.709
Cu(IrRh)2,31.1628,29.8866,-1.2762
ZnTe2Ir,38.0879,33.8149,-4.273
CaMnCrP2,52.8796,42.6856,-10.194
Sr2TcF2,25.7429,22.1472,-3.5957
Si3NiPt,21.6647,13.9114,-7.7533
Pr12Tl5Zn2,10.9863,12.1935,1.2072
Pa(BrF)2,13.4847,16.9723,3.4876
NaThPb2,48.7837,49.8193,1.0357
UAlO4,0.7861,6.6867,5.9005
LaYEr4,30.755,29.3398,-1.4153
CdCo3O,10.6848,10.8596,0.1748
ScBi3Au,43.6659,44.858,1.1921
Sm2Ho2Cu,22.6006,25.6881,3.0875
BaNaLa2Os,34.0151,26.4548,-7.5603
ScCo2As,19.5628,16.1836,-3.3792
Sm2Dy2Cu,22.235,25.3757,3.1407
TaMnRu2,41.8483,41.3605,-0.4878
BeNiTe2,22.9394,23.539,0.5996
SrSi2Cl,19.2219,17.0506,-2.1714
AgSb2Br,37.9501,32.5021,-5.4481
Ba2SrHf,37.1119,28.9575,-8.1544
Y(ErTm2)3,24.1372,27.0806,2.9434
Ta2MnRu,46.9864,47.2084,0.222
Cd2HgSb2,23.7424,20.7428,-2.9996
ScCo2As,19.2509,16.1836,-3.0673
SrCaTb,17.4967,17.1638,-0.3329
SrCrPb2,33.913,33.2731,-0.6399
Li3CBr,22.7848,17.3323,-5.4525
Ta2MnRu,47.2092,47.2084,-0.0008
CsBaTa,17.2638,20.3691,3.1053
La(Cr2Bi)2,30.3752,27.2572,-3.118
Tl2RuAu,38.2694,40.4911,2.2217
K5Sb2F12,11.2362,9.1726,-2.0636
GaRuRh3,44.2878,33.3312,-10.9566
EuAlGaCu,12.9846,13.6247,0.64
TbY2Er5Tm,21.0743,23.4977,2.4234
UTa2(AgS3)2,48.8191,39.1458,-9.6733
AlTl2Tc,51.4034,47.7449,-3.6584
CaMn2Ni,78.3139,66.8431,-11.4707
NaSrSn6,20.0764,20.6314,0.555
MnSbSe2,55.4247,43.7694,-11.6553
AlTl2Tc,51.2224,47.7449,-3.4775
Bi2Te2Au,44.8236,44.5756,-0.248
Bi3TeAu,51.6057,51.2357,-0.37
AlTlTc2,61.5093,55.1181,-6.3913
TlZn2Tc,36.9893,35.8664,-1.1229
NbBRh,60.7955,53.5232,-7.2723
Cr(WN2)2,18.2709,18.4643,0.1934
LaW2I,31.8691,31.5,-0.3691
Sr2Cr2In3,17.3473,15.5077,-1.8396
GdGePt4,65.4637,46.9162,-18.5475
AcSbAs2Pd5,24.3593,24.249,-0.1103
FeBi2Au,39.5665,41.4687,1.9022
CaMo2P,23.5855,22.2781,-1.3073
Sr2HfZr,68.1947,50.8299,-17.3648
Y4Er3Sc,18.738,20.8775,2.1395
ZnSb2Pb,37.6778,33.5,-4.1778
TbCoTe,19.6401,22.1614,2.5213
SrBeCr2,13.5774,9.3577,-4.2196
ErPuZr,58.2233,54.7863,-3.437
LuNbB2,43.9121,40.961,-2.9512
LiScS2Cl,37.5812,29.9315,-7.6496
LaMnI3,43.716,36.0219,-7.6941
SrBeCr2,13.3023,9.3577,-3.9445
NbB3Rh,43.9333,37.3073,-6.626
AlCuC,19.9501,15.6179,-4.3322
POsN2,41.3899,34.3173,-7.0725
Nd12YEr7,25.9985,27.7757,1.7773
Sr2CrAg,19.1778,16.5899,-2.5879
Ba10Er5Cu15O34,3.1199,3.5352,0.4152
TbScSn,27.694,25.1295,-2.5645
BaNaErSi4NiO12,6.6321,5.5695,-1.0626
Nd5Sb4,32.6692,29.6037,-3.0655
LaBe2Sb,24.1127,19.1122,-5.0005
EuScGaPb,23.1982,25.6798,2.4816
TbY4Er3,21.2668,23.7969,2.5301
YAlRe2,39.6508,37.2675,-2.3833
ZnSb2Pb,37.7011,33.5,-4.2011
GdZnSb2,31.3577,27.685,-3.6727
Y8Er2Tm,18.6665,19.8693,1.2028
Pa2Sn2O7,40.1178,35.2491,-4.8687
Li2SbTe,21.5238,18.9621,-2.5617
K2UCl5,0.0,1.917,1.917
Cu2S2O7,5.6734,6.1448,0.4715
SmThZn17,11.3956,12.1854,0.7899
InReAgPb2,40.8797,40.3901,-0.4895
La2Be2Pb,26.7967,22.2419,-4.5547
NiW5,34.8287,38.9802,4.1515
Ti2SbSe2,23.5036,19.569,-3.9346
Tm2TiS4,40.1834,32.393,-7.7904
BaEuPb,26.5246,28.3587,1.8341
SiAgRu2,26.3203,21.862,-4.4583
TlNiO3,13.4238,13.8613,0.4376
ScNbW3,54.7213,52.1756,-2.5457
Hf2IrRuPt,91.3798,65.991,-25.3887
Zr2Zn2Cu,43.6516,36.8865,-6.7651
CdTe2Ir,37.1854,36.7355,-0.4499
Ge2AsSe2,32.4333,29.0202,-3.4131
CdTe2Ir,36.8552,36.7355,-0.1197
NdZrZn17,13.1167,12.6006,-0.5162
Al2CuAu,15.9264,16.7962,0.8698
PmZrZn17,13.1238,12.6239,-0.4999
Ac6LaPr2,47.7684,48.6631,0.8947
ScCoAs2,24.6388,18.3455,-6.2933
TaGePbS2,44.003,37.7546,-6.2484
PrSm6Tm,22.014,23.7119,1.6978
K3Pa5Se12,29.0416,27.0722,-1.9694
CeAlAs2Rh5,37.562,28.3793,-9.1827
Al2AgSb,20.7054,19.0265,-1.6789
V2ZnBi2,70.1307,59.7278,-10.4028
AlAgSb2,31.1991,25.7707,-5.4284
V2Zn,88.4768,70.2469,-18.23
VZn5,27.8386,23.7543,-4.0843
Al4Cu2Au5,24.4409,24.8058,0.3648
Hf8Tl,133.4237,96.5162,-36.9076
NaSrAgGe,19.7391,18.2435,-1.4956
Ac7(PrSm)2,45.0522,46.7169,1.6647
Pm7(PrTh)2,27.0954,29.5747,2.4793
KFe2AgW,44.563,34.5644,-9.9986
SrSiAg3,33.0885,24.8088,-8.2798
NaInSn4,17.7521,17.8486,0.0965
MnCd3I,36.3311,32.6084,-3.7228
Na(InSn)2,21.1241,21.0446,-0.0795
Cu(BiIr)2,35.454,38.4695,3.0155
Na2SrInSn2,17.483,17.0197,-0.4632
Zr2IrRu,67.6809,56.2179,-11.463
Pr3Tl3Hg2,17.2302,18.2662,1.036
AcP2ClO6,5.5926,5.5078,-0.0848
ScAuI2,20.2861,23.4511,3.165
SrPd5Pb2,25.5839,27.3441,1.7602
Na(In4Sn)2,20.512,20.5958,0.0839
PrTiRu2,21.7335,23.2253,1.4918
TmTaAl4,12.9018,15.7651,2.8632
TaMn,15.8359,23.3084,7.4726
AlSbOs2,33.0689,34.4999,1.431
NaSrInSn2,19.5533,19.6139,0.0607
ZrScAs3,36.9626,28.9527,-8.0099
AlSb2Os,33.8013,30.7754,-3.0259
CsCa(AsO3)2,6.7665,6.903,0.1365
ZrScAs,54.2125,42.1075,-12.105
ZrSc2As,34.8751,27.6915,-7.1836
Al2V3Tc2,83.6324,66.6858,-16.9466
NaTa2Tl,33.3176,37.1284,3.8108
Zr2ScAs,65.3627,50.7075,-14.6552
TaSb2S,41.1144,34.6568,-6.4577
FeRh2W,35.8179,29.406,-6.4119
CaCu,0.93,0.8214,-0.1087
Sm5YEr5,26.2751,28.0137,1.7386
Sm3Y(ErSe3)2,34.6364,30.6946,-3.9418
Ca2CrCu,14.446,10.8755,-3.5706
Ga2Pt2Au,43.4009,33.829,-9.5719
Tl2Hg2S,29.4345,27.1913,-2.2432
LiCuW2,21.4257,25.1658,3.7402
Na2As2Pb3,32.2982,31.4354,-0.8628
Rb4YEr3O8,9.4019,10.5975,1.1956
NaAsPb2,34.9328,35.0772,0.1444
La5Cu,44.2482,31.0764,-13.1718
Ce2Er2Al3,16.5176,19.0747,2.557
Pr3Sm3Tl2,20.0875,21.7514,1.6639
NaLaNd2,31.5045,27.9549,-3.5496
Tc3AgC,74.4316,61.0153,-13.4163
Pr2(ErTh)3,34.7528,37.1852,2.4324
Dy2Ho2Al3,16.914,19.6517,2.7377
Ac3Pr3Tm2,30.1787,31.7806,1.6019
Y2ErSn,30.1231,27.3033,-2.8198
Ba2SbMo,12.4329,12.4222,-0.0107
Sr3InOs,20.7575,21.9455,1.188
Nb3BIr,93.7227,79.5728,-14.1499
Pr3Sm3Th2,24.2144,26.1733,1.9589
La6AlSb2,44.0892,29.9838,-14.1054
K12Au5O2,19.6647,19.2057,-0.4589
InOsO2,23.424,24.0646,0.6406
Ba2Sr4Zn,8.8936,9.8266,0.9329
Ti2Al3Cr2,18.4894,18.1086,-0.3808
EuGaPb2,35.2271,36.9776,1.7504
Sc3(MnGa3)2,7.0565,6.4814,-0.5751
Nd2Ho2Al3,16.6143,18.8555,2.2413
Ho2Tm2Al3,17.8443,20.579,2.7347
BaEu2Ga,18.3296,18.2228,-0.1068
Sc2Nb2Al3,44.0503,37.3397,-6.7106
YErSn2,31.2325,28.1465,-3.086
Ca2MnCr,39.6036,31.0287,-8.5749
FeSi2Br,12.1276,8.0003,-4.1273
Ca6MgAl,4.4501,5.8003,1.3502
Dy3AlGa2,16.4733,19.0131,2.5398
LaMnCr4,32.9455,27.0848,-5.8607
LaZn3Si,17.9548,14.4901,-3.4647
CeZn3Si,12.6742,13.1538,0.4796
CaMnCr4,30.1478,24.4262,-5.7217
Nd2Tm2Al3,17.2836,19.5534,2.2698
BaZn3Si,5.489,6.0159,0.5269
NiAg,5.3703,5.1023,-0.268
V3Si,91.5741,70.2481,-21.3259
YErB4,38.1337,33.9885,-4.1452
ReIO4,27.2539,23.9907,-3.2632
Sm3Ti5S12,17.6644,10.65,-7.0144
AlCd2Sb,21.7079,20.2301,-1.4778
Hf2Sb,101.9289,73.7574,-28.1715
AlCdSb2,28.1125,23.587,-4.5255
NaCo2Cu,27.3977,22.6067,-4.791
PrTmGe3,4.9369,7.9103,2.9733
CrCuTeN2,20.312,18.3333,-1.9788
Pm2Sc2Al3,11.3884,12.2834,0.895
KGe2Bi,18.0928,20.7632,2.6703
KRbEu,14.2328,13.9511,-0.2817
DyTeRh,38.8453,34.2923,-4.553
Tm2Sc2Al3,12.3248,14.1144,1.7896
Sc2Ti2Al3,5.7885,6.6063,0.8178
NdThSi3,20.0006,19.3405,-0.6601
TiCr2I,23.8711,22.1505,-1.7206
NaVNi,48.3046,39.8406,-8.464
Rb3Tl2Sn3,18.636,18.6951,0.0591
ScReCl3,29.4285,23.9419,-5.4866
Tl2NiPb,40.5509,42.1361,1.5851
ScRePb3,58.8429,53.5882,-5.2547
TbTm(ScS2)2,44.5156,39.2278,-5.2879
AgI4,22.7063,21.932,-0.7743
Sm2Te2F,31.858,32.11,0.252
LaY5Er6,24.786,25.0849,0.2989
TlAsRh,36.7126,32.8875,-3.8251
CeScF4,2.8431,2.4842,-0.359
CrAs3,6.6823,5.8034,-0.8789
La5YEr,38.254,27.6066,-10.6474
TlAsRh,36.6777,32.8875,-3.7903
Na2InAg,25.0652,21.3834,-3.6817
BaLaPb,34.4665,30.6156,-3.8508
Tl3AsRh,43.2447,40.3369,-2.9077
Ba2GdTeO6,6.0773,7.446,1.3687
PmY3Er5,19.0839,22.7848,3.7009
KBPt3,40.0179,26.5061,-13.5118
Sn3HgI,17.7721,17.886,0.1139
Pr3Zr5S12,35.8654,22.8846,-12.9808
Cd2SbMo,21.7515,21.9584,0.2069
Na2Be3InAu12,35.362,36.0126,0.6506
Cu3Sb2,18.2617,16.7858,-1.4759
Ba2Al3Zn2,13.892,10.6792,-3.2128
Na2Be3CuAu12,36.7813,36.4974,-0.2838
Hg2GePt,21.9088,17.789,-4.1197
LiCu3W,12.7074,14.3877,1.6804
Na2Be3GeAu12,34.7866,35.5902,0.8037
La3NiB,32.6981,22.685,-10.0131
SrZrTe2,48.0888,43.7424,-4.3464
SmThSi3,20.055,19.4853,-0.5697
CsNaV2O6,23.0065,17.5145,-5.492
SrZrTe2,47.9968,43.7424,-4.2544
La2TaVPb,74.2672,58.4561,-15.8111
Na2Nd(ZrSe3)2,49.4539,39.238,-10.2159
Y4SiPb,30.8689,29.4567,-1.4123
TlSiIr2,38.5011,38.6337,0.1326
KLaScPb2,35.0057,32.0313,-2.9744
Ba2LaPb2,27.3565,25.8558,-1.5007
La2TaPbBr,46.9381,37.4355,-9.5026
Ca(SbAs)2,19.8534,16.1333,-3.7201
HgP2ClO6,4.1785,1.5137,-2.6648
BaLaPb2,39.0467,36.2449,-2.8018
LaVPb2,71.4207,61.1318,-10.2889
PmP2ClO6,1.6133,1.4151,-0.1982
Y2Er2Th5,46.3499,48.9799,2.6301
LaPbW3,46.3295,44.8213,-1.5082
LaEuPb,43.7874,39.4328,-4.3546
SrCa3Pd,7.9112,8.838,0.9268
NdIn5Ni,18.2626,19.7021,1.4395
Y4TaSi,40.652,34.7343,-5.9177
BaSrPr,3.0771,5.0163,1.9392
LaPbW2,46.4219,45.2393,-1.1826
YEr2TmIn4,19.2618,20.4279,1.1661
ZrNbB2,53.2889,46.6369,-6.652
Sc2Al2Ir3,29.706,24.1637,-5.5424
LaScTe2,36.2964,31.6167,-4.6798
TiNbSb2,58.9311,48.3781,-10.553
Tm2Sc3Al2,12.4612,14.6174,2.1562
Tl2SiIr,40.6839,40.667,-0.0169
PbAu3Br,47.8748,45.5157,-2.3591
Pr12SmSn6,4.4645,5.6016,1.1371
Ta2PtPbI,49.7469,44.3566,-5.3902
Y2ErCo2,44.4673,37.9574,-6.5099
BeCdSb,22.9398,19.4186,-3.5212
KAuCl4,3.2305,5.9783,2.7478
La2InBr,32.8559,25.5339,-7.322
In2IrC,32.1767,31.2702,-0.9065
TlSi2Ir,31.1156,29.0366,-2.079
Y3Er3Sc2,17.7121,19.1285,1.4163
CaAc2Er,40.9522,43.1861,2.2339
Hf2Co2I,57.2953,43.9709,-13.3244
Al2ZnFe,5.2191,5.388,0.1689
Cu(SiIr)2,18.1911,19.1333,0.9422
LaMo4Pb,27.9575,27.7033,-0.2542
TaHg2I,15.9146,16.7603,0.8457
LuBeRh2,32.2984,26.7184,-5.58
Cs3TcI,38.2572,35.2745,-2.9827
IrIBr2,23.7457,24.4653,0.7196
GaBiSb3,40.4274,34.1294,-6.298
FeAuSe2,36.1361,32.5373,-3.5988
Be2Tl2Se3,34.6392,31.7328,-2.9064
SiAgRu3,29.2346,22.7438,-6.4908
Ta2FePb,34.4365,35.6616,1.2251
Cs3AuF,22.0514,22.83,0.7786
TbPm3Bi4,39.0075,41.4526,2.4451
CoCu2Ir,31.6862,28.9578,-2.7284
La2PbW,48.8213,42.1201,-6.7011
LaPbW,48.2867,44.8776,-3.4091
La2SbPb,49.4421,39.0138,-10.4284
Al3(VMo)2,47.9078,37.9905,-9.9173
Ru2Pt7Rh2,77.0149,53.1451,-23.8698
ZnReHg,31.838,24.1276,-7.7104
PrSm4N5,11.3931,13.7853,2.3922
La2ScPb,40.0557,32.825,-7.2306
CsTc3I,67.1865,57.9246,-9.2619
La2GdPb,46.0968,38.9425,-7.1542
Tb4InHg2Rh,21.2719,21.1768,-0.0951
Hf2FePb,80.0827,61.8945,-18.1883
YEr2IO8,18.4362,17.253,-1.1832
K2H2Pd,10.8924,9.6007,-1.2917
Ru2Pt2Rh7,58.7602,42.2632,-16.4971
LaTa3Pb,45.0298,42.6421,-2.3876
Y2ErCd3,18.7635,20.7109,1.9474
Y2Er3PuS6,42.0943,36.2448,-5.8494
Cs7(AuF)2,24.6956,25.0052,0.3096
SrZrMo,36.1364,33.8097,-2.3268
Pr4InPb3,20.7559,21.288,0.5321
LaOsO4,16.7459,17.09,0.3441
SrLa2Pb,38.4201,33.1929,-5.2273
CsCu2Rh,18.8656,16.5557,-2.3099
Co2CuRh,32.8199,26.0317,-6.7883
HgP2SeS,24.4258,22.6386,-1.7871
Tb2CeFe2,9.1476,14.4655,5.3179
Cs2RhAuF6,18.2121,15.769,-2.4431
CrSnRu,7.8358,11.3088,3.4729
FeRuI2,29.7322,23.501,-6.2312
LaBeAl2,25.7983,18.7585,-7.0398
Pm3TmSb2C,35.6905,31.7088,-3.9817
TiVSn2,47.0045,37.4409,-9.5636
ScGaPb2,29.5012,31.2011,1.6999
Fe2Co2Ir,28.0559,23.022,-5.0339
Sn2BiAs2,23.3848,24.5775,1.1927
SiGeAs3,14.5273,13.8717,-0.6556
Be2Al2Ir3,31.8024,30.0064,-1.7961
La3SiGe,29.5477,18.9997,-10.548
Ce2Y3Er6Sc,22.7714,24.3566,1.5852
TaGa2,39.3629,34.3257,-5.0373
LiYErAg,18.6366,18.6913,0.0546
Li2CoTe,12.5527,12.2668,-0.2859
InSiTe3,28.2745,27.2864,-0.9881
TaSi2Ir,27.2699,29.3863,2.1164
YErTcAg,76.5529,67.5017,-9.0512
YErAgPb,31.3855,32.4727,1.0872
ErZnSe3,31.2079,26.1503,-5.0576
Ta2SiIr,32.6759,34.6962,2.0203
Nd3Ti,20.0009,22.722,2.7212
Al2Ag2Sb,22.8368,19.283,-3.5537
Fe2CoPd2,18.0501,17.1253,-0.9248
DySc3,10.67,13.2503,2.5803
BaAg2HgH,13.1854,10.6752,-2.5103
Li3YNb,32.3635,27.5064,-4.8571
VCuPS2,54.5143,42.3065,-12.2078
NaSrIn,17.0602,17.4716,0.4114
HIO4,11.5486,11.2074,-0.3413
LiTiRh,17.85,14.9132,-2.9368
InAgP2S,24.5836,23.6683,-0.9153
Pm2BiPb,38.6159,41.1463,2.5304
Na(HfSi)2,61.4303,43.6353,-17.7951
YEr2Re,28.9199,32.6562,3.7363
YRe4Si,41.7738,42.1442,0.3704
Tb2ZrRh4,49.1738,38.1792,-10.9946
HfTlAu,75.1699,64.3555,-10.8144
Na3TiS4,40.1546,30.921,-9.2336
Re2(OsRh)3,44.2681,41.1869,-3.0813
Si3NiRh,20.4278,13.4785,-6.9493
LiTlPb,26.2672,29.4723,3.2051
Tl2Se2S7,54.2155,42.603,-11.6125
Li2YCd,8.4849,9.6948,1.2099
Sr2U2S7,49.6149,41.319,-8.2959
WSeI2,17.5167,17.5445,0.0278
Bi2Pb2Au3,50.8515,52.0721,1.2206
ZnOs2Pt,45.4276,41.1723,-4.2553
Tl2Pb2Au3,49.7567,51.0144,1.2577
CaSbRh3,41.7973,29.569,-12.2283
Ta2Cr,50.4534,45.5969,-4.8565
TaCr,44.7681,29.8159,-14.9522
U(FeGe)2,17.3349,20.485,3.1501
Re3(TcB)2,43.5758,42.3999,-1.1759
Th(GeRu)3,13.5371,16.532,2.9949
Ru2(PtRh)3,67.3491,47.7849,-19.5642
YWF2,28.1704,22.8204,-5.3499
Na3Ir(BrF3)2,15.15,13.5831,-1.5669
CsBa(PO3)2,6.4354,4.8541,-1.5813
KZrRu2,30.751,27.8483,-2.9028
Re2Tc3B2,51.1131,47.3541,-3.759
Sc2RhAuC,32.772,27.1863,-5.5857
Ac4YEr3Bi8,48.9134,50.7199,1.8065
ScTiS2,32.4566,29.3326,-3.124
InOs2Pt,48.7077,43.9623,-4.7454
SiIrN2,10.4932,10.0578,-0.4354
HfSiBr3,38.6959,28.2833,-10.4126
Pu2UPb,66.4545,69.33,2.8755
MnNb2Sn,93.2191,79.7598,-13.4593
Na(HfSi)2,61.4106,43.6353,-17.7754
Hg4Mo5,3.7738,6.8579,3.0842
U3Se3S2,48.9965,43.2586,-5.738
AcSbAs2Rh5,41.0478,32.5665,-8.4813
ErSiS3,25.2067,17.0658,-8.1409
CdGa2Ag,16.9292,16.6018,-0.3274
ZnSbPd2,18.8355,18.7853,-0.0502
Pu3SiOs,42.3119,44.7836,2.4717
SiNi3P,10.7377,8.6342,-2.1034
SmAs2Rh5Pb,37.7411,30.293,-7.4481
HfTiS4,61.2588,45.5174,-15.7414
HfGeBi,62.4733,52.2913,-10.182
Sc2ReGe2,34.5758,26.0763,-8.4995
Nb(FePt)2,64.6056,49.7476,-14.858
Fe2Ni2Ir,46.5763,36.3995,-10.1767
MoOsO4,0.0,1.7134,1.7134
Fe2Ni2W,45.6079,35.4211,-10.1868
Fe2Pd2Au,16.5603,19.0401,2.4798
TmScGaRh,22.5677,22.0815,-0.4862
Ac4Sb2PS,49.9743,49.8649,-0.1094
Ir3Os2Ru3,39.6873,36.4149,-3.2724
LiMo2,10.7229,14.3633,3.6405
NaHfPAu2,53.8518,44.7272,-9.1246
La3HfBi,70.9068,51.7869,-19.1199
Na2SnAsI,20.4614,19.0048,-1.4567
Ba3Li2(InAu2)2,21.8121,22.1664,0.3543
Sr2CaOs,17.2065,18.6956,1.4891
Be2SnMoBr,23.6147,18.7406,-4.8741
LiScPb,10.6606,14.5969,3.9363
Li7YCd4,7.7896,8.484,0.6945
BeHg2Sb,11.5709,9.5115,-2.0594
PrSiAu3,29.8113,30.1733,0.362
Pr2TlFe2,20.0377,17.3939,-2.6437
ZnMoBr2,11.9863,12.499,0.5127
Cs2K2Rb2Ag,15.4156,14.0459,-1.3697
NdSmEuAl,20.4597,22.9138,2.4541
PrSmF,8.2917,9.6153,1.3236
Na3Ni2OsO6,14.0675,13.0541,-1.0133
SmSbRu,21.6388,23.202,1.5632
La4Sn3Se8,42.3138,32.7184,-9.5954
CaFe2Ni,40.805,28.8359,-11.9691
TiIn2WS,29.2652,26.8279,-2.4373
LiMo3,11.8216,15.3687,3.5471
Sc2TcBr,66.9589,56.8047,-10.1542
NaEr(ReO5)4,11.9121,12.2643,0.3522
SrAuCl2,24.5536,25.1449,0.5913
SnPC,30.3131,24.2879,-6.0252
CaFeNi,33.4823,25.5997,-7.8826
Tm2Be2Ga3,10.3552,11.523,1.1678
CeMg2(H4Au)3,10.7814,10.7593,-0.0221
PaTaAs2Ru5,25.4324,24.8847,-0.5477
ScTcBr,86.6914,73.7308,-12.9606
Be2Nb3Ge2,62.9284,53.1167,-9.8117
SnCO2,69.1091,53.077,-16.032
ZnCd2Ru,15.809,17.4717,1.6628
YErTcNi,72.0079,64.3505,-7.6575
SiSn2C,26.9779,21.1485,-5.8294
Th7(OsPb)2,58.9366,61.8085,2.8719
SrInSnBi,26.7665,28.1582,1.3917
Hg3PtBr,21.6235,15.4473,-6.1762
Sc4SeI5,17.2142,17.6471,0.4329
Cu2AgIr2,21.3759,24.3603,2.9844
Sr2Al3Pt2,30.2075,22.0913,-8.1162
Ti7SiGe3,8.313,8.2696,-0.0434
Zr5NiSb3,64.1668,50.5564,-13.6104
SmEuRu4,19.5808,22.756,3.1753
Ti2FeS,18.5737,15.4045,-3.1693
Ag7(PdPt)2,39.5258,30.4994,-9.0265
K12AgHg6,9.0083,7.7342,-1.2742
CeSbAs2Ru5,21.0736,20.0245,-1.0491
Tb2PrY6,9.2083,12.0502,2.8419
CeYEr,7.7248,14.6073,6.8825
NbSiPtPb2,71.2051,58.503,-12.702
Y6TlPt2,27.4218,22.8783,-4.5435
NpSnAs2Ru5,23.4684,23.1301,-0.3383
U(CdP)2,22.5773,24.8496,2.2722
ScTc2Br,88.3103,76.4735,-11.8369
TiSnS2,25.5953,14.6409,-10.9544
Th2InP,38.0768,42.0695,3.9927
Bi4Au5,50.5781,51.9491,1.3711
Li2SmPb,19.3786,20.9654,1.5869
Ca2NiPd2,8.7822,9.3944,0.6122
Yb2C,43.5585,39.8074,-3.7511
Nb2Sb,84.4305,69.9919,-14.4386
SrLaSc,19.4532,16.9459,-2.5072
Ti2CuS,18.0737,16.6436,-1.4301
PrSm12Y7,20.0054,21.1757,1.1704
CsSi2Mo,12.5498,11.8351,-0.7147
Sr2LaSc,21.0488,17.903,-3.1459
TiPtS2,51.674,37.6655,-14.0085
Al5CuSi2,17.1842,14.8334,-2.3508
LiTm(NpS2)2,48.2835,41.6205,-6.663
Os3Ru2Rh3,49.5667,43.3475,-6.2192
TiV4Tc,102.0586,81.9983,-20.0603
TiS2,38.4197,30.3233,-8.0963
SmPaCu2,26.5849,29.9122,3.3274
Ba(SrGe)2,5.849,7.7277,1.8787
Na(InPt)2,43.9771,33.0574,-10.9196
Sm7(BiRu)2,28.4553,30.9698,2.5145
LiNdSmRu,16.4054,20.0362,3.6308
AcFeO4,8.0326,10.6034,2.5708
Sc2InPb2,23.0477,25.0415,1.9938
KSm2Ru,19.5617,21.8085,2.2468
Al2Cd2Cl,7.4877,9.1076,1.6198
Sm6Bi2Ru,30.0853,32.4675,2.3822
AlCuSi,17.6276,16.0915,-1.5361
Ac7(PmTm)2,51.3988,53.2056,1.8067
BeAl2Os,23.1879,22.0974,-1.0905
Pr2Sm3Ru2,29.5898,28.4685,-1.1213
Ti(VS2)3,65.3965,48.1846,-17.2119
TbCe(Sm3Tm)2,26.5359,28.1764,1.6405
Ce2BiF2,22.2237,22.7221,0.4984
Sm2NpFe2,17.9016,20.6571,2.7555
YbP,18.1731,21.7414,3.5683
Pa2Ti2S5,46.2695,38.6624,-7.6071
CdRe3I,59.0555,52.1513,-6.9043
KZnCr2,11.6021,9.2571,-2.345
Ce4Tm3ScS8,41.1083,34.3954,-6.7129
NiSbAu2,37.3178,36.4861,-0.8317
La4AgSe6,40.6579,31.9652,-8.6926
CaCo2Ni,28.2787,20.5668,-7.7119
CeTaN,20.3215,23.8525,3.531
Er2Co2Cu,10.9129,12.2549,1.342
Cu2Os2Ru,16.6642,21.7244,5.0602
TaSn2Br,18.6856,21.9541,3.2684
Sm2PaFe2,30.7315,28.2316,-2.4999
TmPa2CrC4,50.468,43.1115,-7.3565
Mn2Be2Co3,38.9723,30.3087,-8.6636
Na2Mg(Cd4Ag)3,20.9415,19.7071,-1.2344
U2SnAu2,43.8115,47.0464,3.2349
NaCoAs2Ru,19.5396,15.1646,-4.3751
Ti4SeS,13.0082,11.6674,-1.3408
CeTaN4,1.6618,6.3927,4.7309
Ir2OsRu,40.5605,41.1694,0.609
PmY(PaP2)2,28.9455,29.0472,0.1017
SmYCuSi,29.8132,28.2539,-1.5593
TiBS,12.5295,12.0251,-0.5044
LaY3Au2,24.9375,24.2099,-0.7276
CaLa2Nd,33.3293,25.4027,-7.9266
Ca(LaV)2,68.3243,51.5668,-16.7574
NdY3Tl2,22.557,25.3894,2.8324
Y3AgPd2,29.0047,24.7625,-4.2421
CoCuSb,40.4807,31.6647,-8.816
Y3B2Au2N3,61.2207,51.7647,-9.4561
AcLa2Pr,40.9087,34.0235,-6.8852
CaLaNd,23.3515,21.7294,-1.6221
ScSbPd3,25.1023,20.9022,-4.2001
LaTiS2Cl,33.4347,23.7362,-9.6985
Y2SiSb,36.4248,32.1193,-4.3056
La(CuSb)2,25.694,20.0342,-5.6598
Zr3PdPb,73.2548,60.8737,-12.3811
NbBPI2,41.0412,34.581,-6.4602
Ac4LaPr7,23.217,23.4129,0.1959
Sc(CuGe)2,14.9793,13.9137,-1.0656
Li2InRh,18.3899,14.6597,-3.7302
Yb3Ti,27.7193,29.0226,1.3032
ThGeRu2,26.5114,29.803,3.2916
KHfMoBr2,40.4441,31.4643,-8.9798
GePtO4,16.1377,13.6571,-2.4806
NaInPt2,51.7745,38.6881,-13.0864
SnGeO4,29.2801,24.8665,-4.4136
SbRhC2O,52.0026,39.5544,-12.4482
La2Ag3,39.4076,29.9178,-9.4898
Pu4Ir2O,52.8755,55.313,2.4375
Ba5Pb4,22.8148,24.0201,1.2054
CdBiI3,28.6565,28.9578,0.3013
Bi2Au,52.2264,53.9354,1.7091
Ti5VRh4,34.4003,27.6251,-6.7752
TlFeSe,33.332,31.7567,-1.5753
TlFeSe,33.5563,31.7567,-1.7995
U5As3,37.2865,41.0764,3.7899
LiNbSi3,42.4584,32.5645,-9.8939
UTaBeO6,2.2221,6.9585,4.7364
Dy7P5Pb,12.5824,19.6848,7.1024
Ce6CdRu,23.0832,24.0929,1.0097
Sr2NbPd2,35.934,32.474,-3.46
TiAsS4,44.5784,32.4975,-12.0809
LaAg2,34.7096,27.7932,-6.9163
KRb2Ag,10.3954,8.2114,-2.1841
Ta5Ga2NiH,53.2307,44.3155,-8.9151
Ni2SbAs,30.9472,25.2765,-5.6706
Y3ErRh2,27.635,24.1963,-3.4387
TiNiS4,41.6837,29.8922,-11.7914
Ti2CrFe2,6.8968,7.3153,0.4185
As(PH)2,0.0,0.0111,0.0111
Na2GaTe,22.2679,20.3267,-1.9412
AcSnAu3,44.8701,46.6972,1.8271
Er2TmP,22.7693,25.7662,2.9969
Ti5Ga4Tc,14.742,15.9234,1.1814
Y3TmRh2,27.8411,24.3948,-3.4463
BaCoIr2,19.6409,21.2949,1.6539
AcGdEr,41.128,44.2631,3.1351
TaCrI2,44.3996,34.6129,-9.7867
Ti2TcSn,32.4552,27.9831,-4.4721
Y6SbRu2,14.0751,11.6136,-2.4616
Sr2BiPb2,33.9784,36.1044,2.126
Rb2ZnAgCl5,2.7474,2.9141,0.1666
Y3Sn2Rh,15.7348,11.815,-3.9198
Ho2Ta2C3,44.0186,37.6203,-6.3982
Y3Tl2Rh,14.3883,16.6558,2.2675
Pr(In2Ir)6,25.8975,26.8223,0.9247
Ir2AuBr,37.4154,39.6299,2.2146
Y3BiSb2,29.9126,28.716,-1.1966
TaAl2Pb,24.1141,26.5918,2.4777
TbY3Sb2,25.4901,23.958,-1.5321
SnPb3Au,41.4346,43.189,1.7545
TlFePb,38.2254,37.7965,-0.4289
CeTa2TlO7,13.005,13.4378,0.4328
Sr(LaTi)2,21.53,17.0371,-4.4929
ZrSiOs2,49.4727,44.5135,-4.9591
BaTiSeS2,41.3692,30.3114,-11.0578
Li2(TmIn2)3,19.886,20.1459,0.2599
Dy(YPb4)3,43.4484,44.5914,1.1429
FeSb2As,44.9373,35.9962,-8.9412
FeCuTe,41.7854,35.0266,-6.7588
Al(InSi)2,19.0621,16.2771,-2.785
Ti2PbS,23.8825,23.2914,-0.5911
Nd(PuFe)2,24.1967,30.4079,6.2112
CoMoBr2,17.3089,15.4068,-1.9021
TbY3Th2,27.2588,30.4113,3.1525
RbReI2,18.546,20.2286,1.6825
Sm4SiGeI2,20.2994,21.4153,1.1159
Mn2TcNi,99.9556,85.9613,-13.9942
BaSrPtPbCl,33.3137,28.8785,-4.4353
K4La3ScS8,41.9615,30.724,-11.2375
Sc3CdTc,56.6425,49.2397,-7.4028
Y3TmAu2,21.4426,23.9083,2.4657
AlAsSe,35.7182,33.6915,-2.0266
InSb2As,30.0672,25.6249,-4.4423
TaP3,13.7645,13.7223,-0.0422
Cs2RbYCl6,16.8803,18.0641,1.1838
Ca2TaP,26.3835,25.2676,-1.1159