Formula,E_hull_DFT (eV/atom),E_hull_ML (eV/atom),Delta (ML - DFT)
Pm2DySb2,27.1758,26.6551,-0.5207
La2ThAg,50.2191,41.7551,-8.4641
LaSm3(YEr3)2,27.5708,27.6066,0.0358
K2OsPb,30.6109,31.0968,0.4859
AlIrW2,30.7256,35.5633,4.8377
Pr(AlAs)2,19.2451,13.5377,-5.7074
LiHfTaW,54.9922,47.9889,-7.0033
La2ThAg,50.3737,41.7551,-8.6187
Sb3Cl,34.7774,27.3609,-7.4165
FePt2Se,57.4951,42.2276,-15.2675
Pr3YErTm,6.5161,8.4517,1.9356
LiSeI2,23.7374,21.8996,-1.8378
Mg14CdFe,3.4991,4.3112,0.8122
YbSi2Ru,16.6888,13.7123,-2.9765
CsBi2I,35.9237,37.3113,1.3877
AlCuSb4,32.8783,25.3948,-7.4835
YHo2ErIn4,23.1523,23.4462,0.2939
Cr2MoRu2,4.8939,8.6797,3.7858
Hg2GeRhAu,21.9115,19.3627,-2.5488
CuPb2,33.827,37.5958,3.7688
Pr6Y3ErTm2,10.1568,10.683,0.5262
Sb2Pb,47.5774,41.4836,-6.0937
PaPb,60.2674,64.5061,4.2386
Li2Y(ZnHg)2,11.1736,9.3143,-1.8593
ScGe3Te,25.3498,20.9199,-4.4299
Li2Ge2Ir,7.4663,10.6575,3.1912
CuPb,7.1147,13.1865,6.0718
Mn4RuF2,62.5953,48.1041,-14.4912
AlSbPb2,38.4678,37.7309,-0.737
TiMnCrGa2,36.3164,30.401,-5.9154
Tl(PbBr)2,44.5775,38.7533,-5.8242
Ba2SrBr,7.9674,7.563,-0.4044
BaSnRu,5.6908,7.8135,2.1227
Cr2TeIr,27.3057,26.0786,-1.2271
Ti2TlGa2,10.5126,13.9625,3.4498
Cr2ReIr,26.6488,28.0463,1.3975
Rb2CaSnCl6,4.9684,4.7043,-0.2641
TlIrI2,35.9139,36.671,0.7572
CrCoIr2,26.5508,28.2722,1.7214
TaCr2Ir,51.2567,41.7915,-9.4652
SrGaF3,9.3486,8.9991,-0.3495
Be2PdI,23.4337,23.1778,-0.256
CrIrOs,33.6321,35.789,2.157
Cs2SmPu3O12,14.3801,17.8318,3.4518
Na3CaF6,9.5653,9.0934,-0.4719
Cr2TcIr,39.67,35.5652,-4.1048
TaNi2Au,24.1278,27.8887,3.7609
CrAgIr2,33.2096,33.6696,0.46
Ca2PbF,12.4299,15.0774,2.6475
Pr2SiP,17.2236,14.6096,-2.614
CrIr2Br,41.121,39.734,-1.387
CrAsIr5,34.6504,36.6489,1.9985
TaCrIr,63.4605,50.9896,-12.4709
CrTc2Ir,60.728,54.4542,-6.2739
Cr3ReIr,24.7076,23.8373,-0.8703
Cr(InIr)2,21.8561,23.9092,2.0531
CrAsIr,22.9119,22.9085,-0.0034
Cr4AgIr,19.3825,18.0236,-1.3589
ScSBr2,30.2806,29.2694,-1.0112
CrIr3Br,42.7476,41.3636,-1.384
NaTiPtF2,30.9612,23.0334,-7.9278
Li3Br4,22.1082,20.1947,-1.9136
Pr2SmYEr,8.729,11.8055,3.0765
PaCrIr2,41.4763,43.4395,1.9632
CrHgIr2,25.3524,26.4445,1.0921
NaCr3Ir,21.0797,19.7653,-1.3144
ScBeS3,42.909,33.8411,-9.0679
CrIrPt2,58.8338,45.7933,-13.0405
Sr2CrAg2,17.6985,13.7576,-3.9409
ReAgTe,39.3678,37.372,-1.9958
SnMoI2,37.177,29.2439,-7.9332
MoAsPb2,32.9293,34.6798,1.7505
CeZr5Sb6,64.8362,52.9086,-11.9275
ReAgTe,38.8523,37.372,-1.4803
PuTiGaMo,25.216,28.4815,3.2654
Na2CaTi4,18.8442,15.8784,-2.9658
Cr2IrBr,33.3332,30.1141,-3.2191
CrPIr2,48.2684,45.1903,-3.0781
CrIrBr2,33.2524,31.419,-1.8334
TaCr2Ir,51.0298,41.7915,-9.2383
CrAgIr2,33.1604,33.6696,0.5092
CrIrRu,28.5661,27.1661,-1.4
CrSbIr,34.165,31.0548,-3.1102
CsCrP2Ir,43.8507,35.7096,-8.1412
CrIrOs2,35.5829,38.0542,2.4713
Cr2SnIr,14.8379,17.2339,2.396
ZnCrIrOs,29.5085,28.5547,-0.9538
CsLiCa2,8.9471,9.8257,0.8786
TmTiGa4,11.1845,13.2361,2.0516
Cr(MoIr)2,21.39,21.9635,0.5735
CrTcIr3,48.8594,45.6502,-3.2092
Cr3InIr,19.9462,18.5694,-1.3768
CrIr2Os4Ru,37.6887,38.761,1.0723
LiCrIr2,25.3199,26.2539,0.934
Hf(IO)2,64.9665,49.5361,-15.4305
CrIr3W,38.0681,39.0226,0.9545
NpUCrIr,48.8539,51.3352,2.4813
PuNiHgRh,31.6243,29.6473,-1.977
CrCdIr,25.7152,25.6374,-0.0778
KCrIr2,29.1403,29.1364,-0.0039
AgMo3I,22.145,21.8888,-0.2562
BeCrIr,11.0522,15.0027,3.9505
CrIrAu,35.3877,36.0657,0.678
Gd2CrIr,28.7593,29.5649,0.8056
Tb2Sm2Y6Er,19.7497,21.6249,1.8752
LiAg(BiS2)2,45.5565,37.0298,-8.5268
CrHgIr4,31.6847,32.7014,1.0167
Sc2PdS,34.2034,31.1389,-3.0645
TlCu2AsCl6,10.5888,10.088,-0.5008
Cu2AgPbCl6,12.2463,11.4676,-0.7788
YPdPt3,59.9508,42.6838,-17.2669
CrAsIr4,33.7673,34.778,1.0107
Al2TcAs,41.0894,31.9224,-9.1671
Ac(CdHg5)2,7.6019,8.1027,0.5008
CrIrPt2,58.9498,45.7933,-13.1565
NaLiPdO2,27.0977,24.321,-2.7767
AlTcAs2,41.4938,35.1369,-6.3569
Zr2ScPt,64.8595,54.6408,-10.2187
AlTc3As,69.2022,55.6359,-13.5662
ErTiGaAu,28.3578,25.1691,-3.1886
SiPCl2,7.1397,7.2488,0.1091
RbBi3Br,35.8206,36.1662,0.3456
SiP2Cl,7.7788,7.423,-0.3558
La2Nd(AgPb)2,41.9393,36.1413,-5.798
HoNpPd6,24.9339,27.0042,2.0703
TiGaFeAg2,21.2187,16.3229,-4.8958
K2GaP2,0.0,0.0,0.0
YErPSe,35.893,30.7992,-5.0938
Ba2CaI,6.5455,7.5347,0.9892
CrCo2Ir,17.5436,18.8697,1.3261
Sr5Zr2N6,16.121,13.7167,-2.4043
K2Zn12Au7,21.0733,21.6044,0.5311
Ba2YNb,60.4332,50.0623,-10.3709
CoGe2Rh,18.2832,16.3673,-1.9159
Lu2BiRu,33.8837,37.3887,3.505
Nd2PdSe4,30.6916,28.3172,-2.3744
Na5PbAu2,33.6516,30.7176,-2.934
Rb2Sr4N,12.7657,13.0336,0.2679
YNb3(MoN3)2,51.1643,43.839,-7.3253
Ho3(TmTh)2,39.7851,42.8362,3.0511
Pr2Sm2Rh3,33.0637,25.508,-7.5557
PrNdHg,6.3356,8.642,2.3064
Ca3Y(ErSe3)2,50.4809,40.9313,-9.5495
NaSrLa2Rh,37.8613,27.0182,-10.8431
CaY3(ErSe2)4,37.8387,32.9772,-4.8615
Ga2SbC,26.4991,21.2982,-5.2009
LiHoSnBr6,12.2876,14.3141,2.0265
Na2PbAu,34.6229,33.1004,-1.5225
CeY4Pb15,43.1481,44.1698,1.0217
Ti3Ga2C,8.1346,8.0957,-0.0389
Na2Tb(SmSe2)3,34.9486,30.4449,-4.5037
LiY3(ErS2)4,36.4247,29.8198,-6.605
Pm2ErPt,42.2446,38.3408,-3.9038
AlCI2,28.449,21.7385,-6.7106
ZrAgSe3,49.0706,40.2481,-8.8225
BaSr4Pb,17.8814,18.9579,1.0765
Hf6TlNi,114.9533,84.2128,-30.7405
LaHfTlSe2,69.3154,53.2375,-16.0779
Ti12GaGe6,7.8026,8.5433,0.7407
RbCu(ICl3)2,7.7475,7.8452,0.0977
Y3Er5P,27.2694,26.0315,-1.2379
Tb2EuPb,33.2377,35.1951,1.9575
Li2TbIn2,11.9704,12.7736,0.8032
Ho4Ni3,18.4894,20.2489,1.7595
Ho2Tm3In2,26.7482,28.9669,2.2187
CaPm6Y2Er3,24.1567,24.4159,0.2591
BeCdHg3,4.5755,4.4998,-0.0756
SiTePtPb2,51.22,43.8223,-7.3977
SmY3(ErSe3)2,32.7989,29.1842,-3.6147
K3CuCl6,2.7472,3.3166,0.5694
LiY2Zn4Ga3,9.5987,9.4017,-0.1971
Nd4PtRh,32.9112,28.3791,-4.5321
BeTe2Pb,34.2132,33.9455,-0.2677
YEr3Pd,25.2848,25.685,0.4002
Ir4OsRh,44.143,45.5401,1.3971
LiScSnPb,27.3938,25.1133,-2.2805
TcAs2I,29.3867,27.158,-2.2288
Be5Au3,17.6955,19.2778,1.5823
LiSnSb2Te,31.0863,26.4664,-4.6199
Y3ErPd,18.3337,18.8258,0.4921
Sc2MoS,38.7054,36.9886,-1.7168
CaY3Au2,20.937,21.3479,0.4109
Pr2Sm3In2,14.7504,17.851,3.1007
Ta5Mn4Fe,59.0975,52.4986,-6.599
ScSeS,29.8539,26.6073,-3.2466
LuTl2Pb,46.903,48.7181,1.8151
LiSnTe2Mo,37.2041,29.8835,-7.3205
Sc7(GaSn)2,14.1044,12.2625,-1.8419
CaYAu4,37.3148,36.499,-0.8158
SrMn2Pt,69.4936,52.4277,-17.0659
In2Sn2Bi3,35.0596,36.4576,1.398
In2Sn2Au3,31.7393,32.8319,1.0926
In2Sb2Au3,35.2173,33.3992,-1.8181
Tm3(HfIn)2,59.7312,48.9495,-10.7817
Ba2Ac2In3,26.5927,28.4235,1.8308
AlI,4.3709,3.8137,-0.5571
Tb3(InHg)2,16.5451,18.5969,2.0518
TbGe3Rh,20.0518,18.6495,-1.4023
CaYMgCd,14.9155,12.8391,-2.0764
AlI,0.0,3.8137,3.8137
AgAsPb2,36.7461,35.7601,-0.986
DyY(TmBi2)2,39.297,41.3756,2.0787
TiGaAgPd2,18.6583,17.2267,-1.4316
LiTiSn2,20.3726,16.3915,-3.9811
Li2LaHg2,13.7219,10.0464,-3.6755
Ba5(SiN3)2,0.0,0.0,0.0
Pr3Ga,0.0,0.0,0.0
Cu(SbRh)2,33.2545,25.2929,-7.9616
Ac4IrRh,57.8775,57.7602,-0.1173
YMgV3,83.1692,64.5534,-18.6158
Sc2SCl,43.5417,39.6781,-3.8636
La2PmYEr2,28.4869,24.8028,-3.6841
Ti6ZnGa3,0.2561,3.8309,3.5748
LiSn3C,26.055,22.3954,-3.6596
AcY(ErS3)2,45.7193,37.8408,-7.8785
LiSi3Sn,19.9271,13.8766,-6.0505
CdInBr2,15.1283,15.5925,0.4643
CdOsBr2,21.948,22.9003,0.9523
K3TiTe3,19.0889,19.1606,0.0717
NdSm2YCd4,20.3418,22.7475,2.4057
PtRhPb,63.8774,51.0168,-12.8606
PrYHg6,5.1878,4.1481,-1.0397
Rb2In2I,13.261,13.8072,0.5463
Ti3GaPt,1.3108,2.5658,1.255
Pr2Ho2In3,14.9118,17.0502,2.1384
ThIn2Ni,22.5978,25.9876,3.3899
AsP2W,80.0368,66.5677,-13.469
LiIn2Sn,13.5137,14.5895,1.0757
HfAlCu,46.2763,34.7027,-11.5736
V2GaCu,64.1746,51.6451,-12.5296
Hf2MnPSe,88.4482,64.1467,-24.3016
Sr3InC,25.3424,21.7715,-3.571
AlZnGa2,7.8963,8.5045,0.6082
PmLu6,33.9331,34.9346,1.0014
La3Y4ThBi8,43.6669,42.3065,-1.3604
In2NiGe2,12.4839,11.4567,-1.0272
Y2Er(TmS2)3,38.8675,31.9159,-6.9515
Pu4PdRh,47.0873,47.2127,0.1253
Li2NbN2,21.3521,18.9291,-2.423
CdBiP2S,29.2346,29.1695,-0.0651
Sn(GePt)2,43.4137,33.5693,-9.8444
Li2IrAu,22.7223,24.553,1.8307
Yb2InOs2,34.5857,37.2699,2.6841
Th2Zn,30.3206,38.2357,7.9151
Y3Er(TmS2)4,38.5468,31.877,-6.6698
NaZr3Mn,86.4172,72.9337,-13.4835
LiIr2Au,34.0913,36.9884,2.8971
Cd4Fe3,11.1985,13.3721,2.1736
Hf(GeRh2)2,51.6836,37.1256,-14.558
Y5(ErTh)3,32.7133,34.9313,2.2179
CaPm3Zn4,14.1963,14.9564,0.7601
Mo2P2Rh,22.1922,14.9228,-7.2694
Zn2MoOs,21.6653,21.3384,-0.3269
ZrReW,59.3245,58.354,-0.9705
ZnMo2Os,26.946,24.1937,-2.7523
DyPHPd2,6.9386,12.1016,5.163
UTc6,90.4604,76.0511,-14.4093
K3Rb12Cl5,0.0,0.0,0.0
InNi6Ge,10.3594,10.6424,0.2831
Sb(MoP)2,29.8541,21.1997,-8.6544
Tb2YMg6,9.5283,10.7896,1.2612
NdGa4Pb,18.2318,19.7279,1.4961
K5AgF8,9.5875,8.9163,-0.6712
Sr(ScTe)2,18.9233,17.6573,-1.266
YErPu2,46.9974,49.7772,2.7798
Hf2SnCl,72.1857,52.2998,-19.8859
La2Y2HoEr,26.6397,24.1814,-2.4583
Na2ZrInF,34.7538,29.4843,-5.2695
NaAs3Au,21.5807,20.9701,-0.6106
LiFeBr3,20.0012,17.3635,-2.6377
ZnInGa,9.7429,11.9316,2.1887
Er4Cu2Ir,24.5431,27.905,3.3619
Eu2Sn3,16.0485,18.7387,2.6902
GdTlIn2,29.5826,31.1902,1.6076
CdPb2Se,43.0689,42.0512,-1.0177
ZnInGa,9.75,11.9316,2.1815
YThPa2,53.8777,56.8701,2.9924
Pr4OsRh,5.1146,6.3596,1.245
Cd2PbSe,34.6747,33.3682,-1.3065
EuCdSn,16.5492,19.5489,2.9997
Pr4RhAu,6.9723,6.5731,-0.3992
SrAcCl,34.0862,34.2688,0.1827
Th4PtRh,58.6166,55.3741,-3.2425
LuAgAu2,39.3899,38.9593,-0.4306
Na(LiTe)2,21.1572,20.0019,-1.1554
BaSrLaNbO6,1.0622,2.1931,1.1309
Rb3Tl,12.8026,12.7012,-0.1014
Pu3Pt,63.6919,58.906,-4.7859
Dy3PuS4,45.716,39.305,-6.411
Sr2Sc2Tl,14.1354,16.3413,2.2059
Cs3Rb,18.6671,18.555,-0.1121
CsPdIO2,38.4406,32.6344,-5.8061
RuBr2,20.1125,17.9386,-2.1738
RbSb3,30.5692,24.5771,-5.9922
Rb2TbAuCl6,4.8411,7.075,2.2339
TbNpBi,42.6879,46.8907,4.2028
LaYErTh2,39.9693,39.7401,-0.2291
CaTiGa4,7.0285,8.7503,1.7219
LiScBr2,12.778,12.329,-0.4489
BaSn4Rh,16.7982,16.0667,-0.7315
BeSiN3,22.4276,17.9969,-4.4307
Sc6Ni2Te3S,23.2774,22.0013,-1.2762
BaCa3Pb,13.4055,14.554,1.1485
TaMnO4,44.0289,41.0026,-3.0263
CrOs3Ru,34.6333,33.8157,-0.8176
RbZr(PSe4)2,42.9282,34.7021,-8.2261
K(ZrSe2)6,61.0516,48.6548,-12.3968
K(Er3Te4)2,33.7921,32.5946,-1.1974
Ce2NiRh,28.5677,25.7922,-2.7755
Cd2PbBr,32.9108,29.5222,-3.3887
K(Ho3Te4)2,33.3596,32.1685,-1.1911
K(Ga2Pt)6,33.684,24.9292,-8.7549
CdPb2Br,41.2775,37.9765,-3.301
NiPdW3,30.8029,33.2857,2.4828
AgSbW,83.0887,62.7941,-20.2946
AgSbW2,72.0725,58.6896,-13.3829
ScSnP3,25.1813,20.6065,-4.5748
Ta2BiRu2,22.8041,29.7557,6.9516
TaPt4Rh,73.4854,53.983,-19.5024
Rb3SrIn,8.4356,8.0828,-0.3528
NdCoGe2,0.0,0.0,0.0
Pr3NdFe,10.9242,9.6617,-1.2626
Ac3(LaHo)2,50.5502,47.2549,-3.2953
Rb2Ca2Sn,7.2578,7.887,0.6292
ZnRe2W,43.053,39.1307,-3.9223
Ag2SbW,70.1504,52.8718,-17.2786
ZnReW2,34.3059,34.5573,0.2514
Al4InP,16.9287,15.1143,-1.8144
AgSb2W,73.6682,55.6152,-18.0529
Er4Cu2Pt,31.0375,29.9528,-1.0847
Nd3ThNi,29.3573,31.2823,1.925
Zn2ReW,34.7688,29.7504,-5.0183
TlGe3Sb,25.6686,24.2679,-1.4007
ScTc2S,99.558,80.397,-19.161
ScGeS3,46.427,35.4846,-10.9424
Er4TlCu2,25.8359,28.1513,2.3154
Li2SnPd2,13.2457,12.8178,-0.4279
HfAs2PSe,62.2833,48.9609,-13.3224
TiGaMo2Ru,15.6333,15.5719,-0.0613
Ac4TlRh,45.0066,46.513,1.5064
La2Pm3Hg2,25.0826,21.9684,-3.1141
Tb4TeRh,15.2759,17.859,2.5831
Ni2BPb2,20.4322,22.8162,2.384
InMo4Cl7,9.7305,5.5018,-4.2286
HfPaSe2,75.8794,62.544,-13.3355
La2Pr3Nd2,19.7708,16.8429,-2.9279
BeZnP,11.9416,7.5516,-4.39
Pm5YEr3,20.8501,23.7699,2.9198
Pr5(HoTm6)2,21.2601,22.7767,1.5166
Na2Ti2O5,15.8435,13.1272,-2.7163
La2Sm3Th2,44.3983,41.9052,-2.4931
NaCdIn2Cu,18.1632,17.8373,-0.3258
Pr5(Er6Sc)2,18.0909,19.2804,1.1895
La2Tb2Sm3,33.0995,30.3197,-2.7798
Ti3GaI,9.9385,11.4224,1.4839
La2Tb3Ir2,38.0022,35.2876,-2.7146
Pr2FeP,15.1842,12.9176,-2.2667
CsSnBr3,12.0435,12.9411,0.8976
CuMoRu2,25.3698,22.5293,-2.8405
TbY2ErBi5,39.6753,40.8814,1.2061
DyTm2(InPd)3,21.5794,23.8871,2.3076
CsAgSn2,24.6077,23.6947,-0.9129
AlRuPb2,31.6033,33.3555,1.7523
TaMnBi2,56.1665,53.3882,-2.7783
Tb7YEr3,26.453,28.2788,1.8259
MnH6Rh7,31.7166,22.6668,-9.0498
TbHoEr14,29.1833,30.5464,1.3631
Sm12HoEr7,26.9534,28.7401,1.7867
La5SmY2Er,33.2281,25.5953,-7.6329
Ba6Ge2NO,4.7134,5.3555,0.6421
RbTlPb4,40.7914,42.3915,1.6001
LaPrY5Er2,14.6058,15.0574,0.4516
PrNd3Fe,22.679,21.4167,-1.2623
RbTmTl4,39.1937,40.306,1.1123
Al2CdC,22.7014,18.7835,-3.9178
Be2TcSe,36.5143,30.7036,-5.8107
Be2TcSe,36.6507,30.7036,-5.9471
ZrInSe3,46.5734,40.6181,-5.9553
Al(RhAu)2,33.8949,30.5507,-3.3442
Be2TcSe,36.4646,30.7036,-5.761
DyY2HoEr6,21.268,24.2716,3.0036
Al2Zn2Au,11.002,13.1859,2.1839
AgOsI2,27.2065,29.6129,2.4064
ScZn4Cd,9.0021,10.2883,1.2862
TlCuAgSe2,33.5177,29.9182,-3.5995
TaPRu2,17.9044,16.6483,-1.2561
Pm2DyY6Er,13.4247,16.1715,2.7468
InTe2RuN,45.1881,40.7114,-4.4767
Tl2InTe,40.8384,41.2932,0.4548
TcHgOs,45.7592,42.2169,-3.5423
Sc2ZnCd,9.3191,10.9936,1.6745
HfNpRh4,68.044,52.0554,-15.9886
NaZrF6,19.4019,16.802,-2.5999
ThZrPb2,67.2363,64.6404,-2.5959
Th4RePb,51.5278,55.3652,3.8373
BeTcSe2,47.5417,38.5056,-9.036
BeTc2Se,58.9724,49.7106,-9.2618
BeTc2Se,59.3169,49.7106,-9.6063
Sr2Tl2Au,32.4074,34.0822,1.6748
PaCdRh4,46.7169,37.9242,-8.7927
Pd2PbC,38.3165,34.7495,-3.567
RuPb2F,27.7423,30.6433,2.901
TaIr2Ru,29.989,33.229,3.24
MnNbB2,60.2907,50.7311,-9.5596
Sc3ZnCd,9.0309,10.4151,1.3842
Sc2ZnCd,8.9046,10.9936,2.089
YEr5TmTh2,31.2347,34.5271,3.2923
Mn2TcP,73.5989,58.4789,-15.12
ErNpRh4,48.9219,40.2551,-8.6668
Nb(NiW)2,39.7736,39.4141,-0.3595
Sr(GeOs)2,23.1068,25.6024,2.4956
ThNbB2,52.1376,49.3695,-2.7681
DyEr3In4,23.9066,25.4134,1.5067
Ta2PdRu2,14.8105,21.678,6.8675
HfPaRh4,58.5926,44.6977,-13.8949
Ta2Pd5,15.8129,20.829,5.0161
PmSm(PuS2)2,41.9692,37.4608,-4.5083
Y6Ho12In,23.7933,24.5379,0.7447
Pr2ScPa,15.922,19.1743,3.2522
LiTaSbRu2,23.9646,23.5167,-0.4479
TlPAu2,33.551,35.7757,2.2247
NbV2B,99.8907,81.5111,-18.3796
RbTbCdCl6,6.3194,7.7291,1.4097
Ta(CuRu)2,10.8656,14.5261,3.6605
BaLa6,44.9777,29.8281,-15.1496
TaGaRu2,40.0535,31.8537,-8.1998
KTa2Ru,20.0117,23.3963,3.3845
Sc2CuS,43.1479,36.5784,-6.5694
TlP4Au,19.0345,21.4951,2.4607
Nd2Dy5Ho,22.2092,25.1078,2.8986
Li2Zn3Cu2,5.2261,6.2186,0.9924
Ta2IrRu,37.1785,37.8764,0.6979
ZrTa3Ru,47.1568,45.6028,-1.554
TaSiRu2,27.0971,24.3095,-2.7877
TaSnRu,0.0,8.8214,8.8214
CaTa2Ru,16.1005,24.0287,7.9281
TmSb2Au,36.7572,34.1478,-2.6095
NdSmYEr3,20.5586,23.9422,3.3836
Ta2PdRu,26.5616,31.7362,5.1746
CaTa2Ru,24.1287,24.0287,-0.1001
Li2TbPt2,40.5837,30.9697,-9.6139
Er4OsRu,22.214,26.744,4.53
ThTaRu2,33.4311,38.4423,5.0112
TaRu3Br,24.8017,24.7123,-0.0894
TaRu2Rh,40.6285,36.7553,-3.8732
TaAg3Ru,31.7227,27.1168,-4.6059
La2SmYEr5,27.7535,26.3403,-1.4132
AcLa2Sm4Dy,36.9453,34.1438,-2.8015
CdCo4Hg,7.5338,9.456,1.9222
Li2Ag3Ge2,16.0972,13.2344,-2.8628
CaTaRuI2,26.4769,24.3671,-2.1098
Ga3PtPb,34.4905,29.2926,-5.198
Os2RhBr,36.7282,35.718,-1.0101
TaAs2RuAu,29.0601,26.5396,-2.5206
TaGaIrRu,50.7177,43.3093,-7.4085
Mg4InTe,12.044,12.6408,0.5968
Ta2GaSbRu,63.2599,50.6923,-12.5676
TaSnRuRh,41.4669,37.2864,-4.1805
TbY2(ErSe2)3,34.2421,30.682,-3.5601
Pm2SmYEr5,21.8323,24.6678,2.8355
Ta4RuPb,36.4393,39.3583,2.919
Cd2GeIr,23.1309,25.1548,2.0239
Nb2SiB,74.8267,62.5461,-12.2806
RbTaRu2,35.6919,34.0766,-1.6153
Sm2Y(ErSe2)3,35.0221,31.4897,-3.5324
La2FeSb,46.956,34.69,-12.2661
TaIn2Ru,23.07,26.3327,3.2627
Ta2CdRu2,16.1565,22.8313,6.6748
PrVFe,48.6361,38.9808,-9.6554
Rb2Pt2Se,42.459,30.3124,-12.1466
Ta2TlRu,35.7154,39.4999,3.7845
ScSeS,41.9709,26.6073,-15.3636
SrLaLu2,33.2241,31.0275,-2.1966
Ag2RuBr,28.3347,22.2457,-6.089
Pm2AsRu,33.1902,28.8008,-4.3894
Ta4SiRu,32.3297,32.4587,0.129
Nb3BSe,94.9356,78.2219,-16.7137
TaMn2Ru,54.0193,48.2598,-5.7594
K3ZrTe3,32.2496,29.5493,-2.7003
TaSnRu,25.3423,8.8214,-16.5209
SrGeRu,0.0,2.8368,2.8368
TaOsRu2,27.8162,34.8306,7.0144
FeSbOs,42.6361,40.0014,-2.6347
NiSe7,43.7133,35.3073,-8.406
TeMoAs4,18.5685,17.4876,-1.0809
TaIrRu2,32.5419,33.4369,0.895
Li3TaPb,19.3615,20.1645,0.8031
TaCrRu,54.6086,20.4667,-34.1419
FeSbOs2,42.5634,35.9451,-6.6184
Ta2As2Ru,17.2612,18.1036,0.8424
HfTaRu2,52.6359,46.1912,-6.4447
MoAsAuBr2,20.2226,20.8466,0.624
Sc2Sn4Pd,26.5476,21.3458,-5.2018
TaRuBr2,24.7177,23.1576,-1.5601
Pu3NiBi,55.391,57.0198,1.6289
Cs2LaAs2O7,13.8512,14.4184,0.5672
TaTlRu3,29.8755,31.8363,1.9608
ZnHg2Ge,2.9177,4.5103,1.5926
TaRu2Rh,40.5605,36.7553,-3.8052
CoMo2Br,18.9883,17.3912,-1.5971
TbSm5YEr2,20.3562,22.9242,2.568
Ta2RuAu,34.2725,38.9399,4.6674
TaSb2Ru,35.7844,32.893,-2.8914
Li(NbRu)2,55.0111,49.4354,-5.5757
YTa3Sb,49.3956,43.6763,-5.7193
FeSb2Se,44.4934,35.8755,-8.6178
MnCu2Br,34.6136,27.9596,-6.654
TaMn2Ru,62.9603,48.2598,-14.7004
CeSm2PaSe4,40.2468,37.2412,-3.0056
Ta6GaRu,51.0728,48.7757,-2.297
TaRuBr4,21.5437,20.4547,-1.089
Nb(AgB)2,36.8515,30.9906,-5.8609
TaSbRu4,24.6324,26.3698,1.7374
TaAlCr2,32.8663,24.8348,-8.0315
Ni2RuSe,19.6168,19.8506,0.2338
CaTaRu4,17.8214,21.3434,3.522
Cu2Ge2Ru,4.9397,7.3823,2.4426
Ta2AgRu,30.8882,32.3041,1.4159
Pr2YErTm5,17.2131,19.5701,2.3569
Zn3GaRu,0.4465,4.1785,3.7319
Nb4SiB,87.9802,73.2698,-14.7104
Sr2TaRu,28.848,24.5629,-4.285
TaIn2Ru,23.3613,26.3327,2.9714
GaTc3Br,61.2301,50.9324,-10.2977
TaIr2Ru,38.8963,33.229,-5.6672
TbAl4CuPt2,27.8311,22.1895,-5.6416
TaOsRu2,27.6086,34.8306,7.222
TaCrOsRu,51.1368,43.7213,-7.4155
SrCa2Ag,15.3209,12.6523,-2.6686
BaZr2Pb,62.6952,55.1162,-7.579
PrNd2Ge,13.129,15.919,2.79
Na(BiSe)2,42.3126,38.3767,-3.9359
Ta2GaRu2,46.5043,40.5857,-5.9185
TaP2IrRu,33.8426,26.006,-7.8366
CdAg2Br,23.6247,19.8907,-3.734
Ag2AuBr,30.3894,27.0403,-3.3491
TaCuRu2,12.4353,17.5211,5.0858
TaRu2Br,25.7268,25.3301,-0.3966
TaRu2Rh,40.4821,36.7553,-3.7268
TaSbRu,33.185,33.0379,-0.1472
FeSbPb,46.0469,41.9849,-4.0621
Ta2CdRu,27.291,31.4524,4.1613
CaSbSe2N,46.7089,36.3524,-10.3565
AgMoOs2Br,33.0633,29.7988,-3.2645
AlPIr2,39.3793,37.5645,-1.8148
Ce2YErBi5,40.552,41.7636,1.2115
NaCdSnPt,38.2199,31.4447,-6.7752
TaAg2Ru,29.6684,27.8712,-1.7972
Nb2Cu2Ru,55.7273,49.0193,-6.708
TaAsRu,0.0,4.6591,4.6591
TaRuRh2,48.5768,41.1946,-7.3822
TaInRu,24.3299,28.151,3.8212
Ba2CaOs,12.1517,14.7669,2.6153
Ta2RuAu,34.0845,38.9399,4.8554
TaGa2Ru,32.6843,30.228,-2.4562
GaSb3Au,38.8135,32.6201,-6.1933
Ga2SnAu,17.8156,20.1586,2.343
RbYZr,25.2345,21.9441,-3.2904
Tm4InRu,9.7927,15.1294,5.3367
Th4InRu,27.9882,35.1668,7.1785
ZnReI2N,69.8166,61.9484,-7.8682
Pr2DyEr6,17.0875,19.9116,2.8241
Pr3DySn3,5.4116,8.6812,3.2696
PaTaRu2,33.8558,38.8946,5.0388
Li2In2Sn3,15.9473,15.7748,-0.1725
SrTlPb3,44.6136,45.4905,0.8769
FeSbPb2,48.0571,44.7625,-3.2946
K3Bi5Au2,37.0286,37.7164,0.6878
FeSi2Ir,11.6207,11.3003,-0.3204
Y3P5S12,31.9525,22.8762,-9.0763
K2PuF6,7.301,9.8761,2.5751
SiIr2S,32.6402,31.8321,-0.8081
AgAu2Br,34.5413,33.5276,-1.0136
NaWI3,27.4923,26.5983,-0.894
Pm(Y4Er3)2,20.9206,22.4715,1.5509
Li2Mg2S3,11.5719,8.8204,-2.7515
TmPu3S4,57.4298,53.4855,-3.9443
Sr(Cd3Sn)2,19.8672,19.7701,-0.0971
Na3(LiHg)2,13.0988,10.3809,-2.7178
Be8V3Ir,35.4388,30.6038,-4.8351
TlZnPt2,59.3643,46.6728,-12.6915
TmHCl4,2.1339,3.6674,1.5335
SnP2SO,38.3122,33.1881,-5.124
Na6Ca,21.9092,17.4337,-4.4755
Hf2CdFe,70.0288,52.4207,-17.6081
EuZnAg4,26.82,22.0076,-4.8124
BeZn2Ir,24.5023,18.2112,-6.2911
TaSiMo,0.0,0.0,0.0
Li2Ni3Rh2,16.8149,13.951,-2.8639
CsScCdO3,42.8735,40.9763,-1.8972
FeSbPt,58.1281,44.7952,-13.3329
NdZn3Pt,23.3821,19.9904,-3.3916
Be2ZnIr,18.2717,16.9456,-1.3262
MnPS2Cl,45.5893,36.7335,-8.8558
Sc2VCd,39.5387,34.5167,-5.022
Sr2Ga4AgGe3,11.8586,11.8337,-0.0249
Sr2GaAg3Ge4,16.5479,14.8827,-1.6652
GdSiAg,16.625,15.5542,-1.0708
Li2Ag3Pd2,15.0743,13.5336,-1.5407
Li2Tm2Pd3,15.8477,17.8707,2.023
Li2Sc2Au3,21.6199,23.1602,1.5403
Sc2GaBi,17.8638,19.917,2.0532
SrLa2Pb,42.2641,33.469,-8.7951
NbCr4Sb,37.056,31.3568,-5.6992
KHoSe2,27.7882,26.2764,-1.5118
NaNpCuO5,4.1705,8.2199,4.0494
RbCaSc2,11.7952,7.3856,-4.4097
Na2GeTeO6,10.0992,8.7503,-1.3489
Nd8Y5Er,21.3878,22.9258,1.538
Cs2BeSnS4,33.5055,26.6927,-6.8128
YPu2Au3,49.423,51.5786,2.1557
LiAcPrZn,16.8577,18.7392,1.8816
Nd2YEr4Mg,23.428,24.9224,1.4944
Cs3Sm(GaO3)2,19.6232,17.8134,-1.8099
Nd2YEr2,19.9487,22.8449,2.8962
Li2Sc2Ag3,15.2022,12.7305,-2.4717
La2Be2Rh5Pb,33.0793,24.6991,-8.3802
Hf3BePt3,90.6099,66.3437,-24.2662
Na4Ca4Be4FeSi7(O6F)4,19.8104,17.038,-2.7724
TlCdCu4,16.2686,17.4749,1.2063
CuPAu,25.5513,24.3547,-1.1966
BeSiPS2,36.3722,29.5174,-6.8547
AgSnI2,22.0544,21.3533,-0.7011
SnHg2Rh,14.6176,13.6306,-0.987
ScSi2Ag,33.6299,26.429,-7.2009
Tl2Cr,37.4036,37.5706,0.167
CeCoNi3,23.5148,19.3109,-4.2038
Sn2HgRh2,22.9365,19.4201,-3.5164
HfCrNi2,44.8446,35.587,-9.2576
Nd2YEr7,27.0237,29.247,2.2233
La3YEr2,38.2583,30.7416,-7.5166
Rb3YEr2O6,10.6701,11.4258,0.7557