Formula,E_hull_DFT (eV/atom),E_hull_ML (eV/atom),Delta (ML - DFT)
Pr2Nd3Y6Sc,15.0757,14.6913,-0.3844
NaPmS2,22.7804,19.6207,-3.1597
Ca2W3O8,18.9093,19.0952,0.1859
OsI3Cl,24.7242,24.9915,0.2673
HfZr2SeN,78.5943,61.6963,-16.898
Pm2Y3Hg2,28.5411,24.9286,-3.6125
HfCrPdF2,40.1216,29.6184,-10.5032
NaBe2VTe,40.6776,32.5403,-8.1374
Li2(TiH3)3,1.5652,1.9637,0.3985
CsNa2ThI6,26.5573,26.934,0.3768
CrInPbF6,12.333,11.2353,-1.0976
Mg3BiRh,23.1652,20.6048,-2.5605
Cr2CoSnF,14.0622,11.9892,-2.073
CeMgBi,27.0353,29.2259,2.1905
Na3TaOs,33.1895,30.5239,-2.6657
Zr2TcMoH,60.7662,52.5956,-8.1706
NbTlMo2H,46.6672,41.2754,-5.3919
CoAs3Cl,14.3208,11.5772,-2.7436
TiOsPb2,38.6003,41.3212,2.721
CrSnPbF6,13.1411,11.5098,-1.6313
ScIrAu4,45.2541,42.5925,-2.6616
TlCuAgH6,13.2248,11.7806,-1.4442
TaP2OsI,25.9827,24.2672,-1.7155
TaSbTe2Os,42.8476,40.884,-1.9637
FeAgAs,40.4887,33.5129,-6.9758
PmYB,68.8435,61.503,-7.3405
Pm2YHfAs4,29.5278,26.1732,-3.3546
PPb4W,81.6328,74.0037,-7.6291
PmYZnCo,32.1575,29.536,-2.6215
NaDy2TmHg4,13.1791,14.4429,1.2638
NaCrSn2F6,15.8215,13.8541,-1.9675
TcNiAg4,38.1536,31.4664,-6.6871
NaTm(InBr3)2,11.6571,13.6574,2.0003
CrIrAu4,41.6118,42.1121,0.5003
ZnCoTe,27.8064,21.6619,-6.1445
NaLa2CdHg4,17.8119,14.7368,-3.0751
ZnCoTe2,31.4193,25.4916,-5.9277
ZnCoTe2,31.8318,25.4916,-6.3402
CaZrNi10,15.6863,14.1688,-1.5175
CrIr4Cl,35.7703,36.5843,0.814
CoAgRu4,18.6304,18.9245,0.2941
CaPmZn10,9.0939,9.5549,0.4611
Rb2CrPdF6,10.4351,8.7871,-1.648
Tb5(HfH)2,41.5641,34.4095,-7.1546
Cd4TcNi,31.2806,28.5266,-2.754
ZnTe2Br,26.1985,25.2045,-0.9939
SiTcSe,52.1487,41.7778,-10.3709
Zn2TeBr,16.9793,16.845,-0.1343
Cs2CrCuF6,13.6922,12.412,-1.2802
HfTeSeN2,48.5334,37.3721,-11.1613
Ni3AsRu,17.3862,15.5062,-1.8801
TaBe,8.708,18.4586,9.7506
CsCrCuF6,7.8038,7.1944,-0.6094
ReW4Se,41.2039,43.391,2.1871
YPbCl2,53.0416,53.7843,0.7427
CsCrCu2F8,11.4858,11.2417,-0.2441
LiCa4Ag,9.1107,8.6886,-0.4221
Ta3NbI,57.1125,52.8984,-4.214
SiCN,18.9355,15.8844,-3.0511
PrYGa2,8.5706,9.6131,1.0425
As(PPb)2,27.4872,26.7934,-0.6938
Sc2CrF8,9.8699,7.9415,-1.9284
Ta2OsRh,32.4423,35.655,3.2127
NaTl(CuS)2,33.2829,27.4479,-5.835
TaTeOsI2,34.8496,34.6222,-0.2275
CrNiO2F,13.7732,12.4574,-1.3158
AcInAs2,25.588,27.1639,1.5759
SnSbBr2,30.0645,27.9155,-2.149
Ta2Be,19.323,26.5186,7.1955
Pr5YTl2,13.2243,13.8752,0.6508
K3TePd,19.015,17.4929,-1.5221
MoAs2Ru,21.2681,16.7851,-4.4829
Na4Pd3,21.5772,19.7292,-1.848
PrY2Ta,34.209,30.0536,-4.1554
PrYLu2,19.8398,22.5061,2.6664
UPdRh,36.6302,35.4597,-1.1705
Na2LiCrF6,12.7907,10.7185,-2.0722
PrY2Zr,31.159,29.4083,-1.7507
Ba4SiIr,10.6936,10.626,-0.0675
Pr12Tl6Rh,15.3936,15.7032,0.3097
Mg2Bi3H2,27.3561,27.7765,0.4204
RbRu,35.531,32.8309,-2.7001
Rb3RuN,30.5762,25.9041,-4.6721
Pr12Cu6Ir,3.2179,3.1983,-0.0196
HfCdSeN2,43.9484,33.8198,-10.1286
CaScCu10,12.2205,11.0727,-1.1478
KY2Ir,21.0441,23.0252,1.9811
Tl2CrCuF6,14.6259,13.4766,-1.1493
YSiTc2Pt,90.7248,71.2134,-19.5114
La3Eu,45.8733,35.8559,-10.0173
HfSeN2F,40.9532,30.5477,-10.4054
NaPr2Y,8.9291,8.7222,-0.207
Li2MnCrF8,18.5732,15.9955,-2.5778
NaSm5Sn3,18.3041,20.4316,2.1275
LiPu2ThTe4,46.3128,46.2231,-0.0897
LaWI2,34.6587,32.2338,-2.4248
PRuW,95.692,84.293,-11.399
SrCo5H12,2.4315,3.212,0.7805
FeAg2P,33.5014,27.434,-6.0674
PRu2W,76.1864,67.1473,-9.0391
Tb2TcNi,38.6415,36.8053,-1.8362
CoMoRh,23.5708,22.317,-1.2538
Pm4Er15Tm,28.5353,29.8417,1.3064
RbZr(TeO4)2,15.7571,13.3217,-2.4353
SrBe2CrF8,9.9091,8.7813,-1.1277
TiCu2H8Rh3,15.6909,11.7288,-3.9621
SrCrNF2,17.0643,13.8433,-3.2209
Mn2Be4I,38.6922,32.7559,-5.9362
BaAlIr4,35.867,36.0365,0.1696
SrCr2CoF8,12.7898,10.5293,-2.2605
Zr2Sc2As,46.1688,38.2103,-7.9585
TeWSe,35.8072,37.0003,1.1931
PrYIr2,24.2376,27.5719,3.3343
CrSbO2F,23.7585,21.0417,-2.7168
Cu2C,20.5789,18.5546,-2.0243
Zn2CrAg,15.4696,12.7909,-2.6786
KYPb,21.9613,24.4802,2.519
As2RuPt,36.5213,27.6769,-8.8445
CrBi2RuF,31.2818,30.2234,-1.0584
Sc2NiAs,19.506,15.478,-4.028
BaCaAc4,43.8965,45.2266,1.3301
RuWO2,28.1494,24.5667,-3.5827
K2NpTe4Au,38.2192,37.6683,-0.5509
ZnCrBiF6,11.8089,10.5149,-1.294
NaTb5Hg3,14.0857,15.4336,1.3479
Sr4BeAs,17.8809,13.8248,-4.056
BaLiCa4,4.9024,5.5438,0.6414
Co3MoRh,18.1705,16.6709,-1.4996
Na3Tl5Ag,39.849,38.041,-1.8081
Pm2PrY2Tm,12.6202,16.0245,3.4042
ScWBr,20.2602,21.427,1.1668
FeOs2C,46.4646,38.9645,-7.5001
FeRe4Ir,41.7178,41.2886,-0.4292
NaSm5In3,18.9343,20.6903,1.756
CaLaZn10,11.3321,10.47,-0.8621
K3Nd(YTe3)2,27.0186,26.3863,-0.6323
FeSnC2,37.3706,28.2576,-9.113
FeSnN,12.4967,12.9571,0.4604
CsCd10In,19.6931,20.1759,0.4827
Ac2TlReO8,22.9301,23.696,0.766
CaHfI2,44.9092,34.4562,-10.4531
PmPr2(YAs2)3,9.6231,10.5478,0.9247
Cd10InPb,22.1122,22.6298,0.5176
Tb3(SmSn2)2,17.7171,20.5037,2.7867
BeFeAg2,25.2543,18.4823,-6.772
SrCa3(SeO3)4,23.5764,20.9896,-2.5868
AlSiN5,1.3348,3.7408,2.406
Mn2IrN,43.1364,40.5992,-2.5372
SiRh,24.9422,22.8105,-2.1317
Ta2CrOs,56.6308,50.286,-6.3448
Cs3Rb5Na,11.8891,11.0296,-0.8595
CaTcMo4,26.9012,27.1634,0.2622
Rb3PrY2O6,15.5985,12.6861,-2.9124
Ho2Hf(SeN)2,40.9744,33.4639,-7.5106
Al3Tc,0.0,1.1262,1.1262
CaBeIrO5,9.3035,11.2806,1.9772
LiRhPb2,34.65,34.3113,-0.3387
Sc2CdPdC,24.4596,19.869,-4.5906
AlTc3,71.6108,59.7083,-11.9025
CaHgBr4,4.5863,6.7204,2.1341
La5TbPrY2,29.8983,22.6216,-7.2767
Re4TcNi,56.4617,48.6098,-7.852
CaNdBr4,10.9374,11.5918,0.6544
RbNaCdTe2,25.1901,23.3322,-1.8579
TbPr2Y5Th,12.1743,14.12,1.9457
Ca2TaOs,22.8399,26.0109,3.171
CePrCo10,9.0438,9.9839,0.9401
Ni2AgAs2,23.3298,17.363,-5.9668
Nd3HfPb5,47.8109,45.5076,-2.3034
SrTi4(PO4)6,6.9069,6.6219,-0.285
CrSe4Cl,38.5283,31.171,-7.3573
PrNd15Er4,24.1332,25.3174,1.1842
Ca2SbO,36.5573,31.6811,-4.8762
CaCu2W,17.136,17.297,0.1611
NaSi2AgSe,27.3129,20.2436,-7.0693
CaCu2W,16.613,17.297,0.6841
Sc2CdTcC,67.074,54.0828,-12.9912
LaFeW2,36.4201,32.8638,-3.5563
MnCoBr,41.3857,33.1428,-8.2429
CaScOF2,53.7612,47.1175,-6.6437
HfSeIN2,46.2496,34.5397,-11.7099
CrAgRh,29.9844,23.3976,-6.5868
SrVSi3,40.14,28.0743,-12.0657
CoRe2Rh,34.2817,34.6151,0.3334
Cr2Co2Os,6.5517,10.3925,3.8408
CoReRh3,40.1338,32.2586,-7.8752
SrCa2PdO,26.1216,23.3455,-2.7762
CaZr2PbO,67.8241,59.5325,-8.2916
AlBi2F,40.5415,38.9752,-1.5663
Tl4CuTc,51.5535,49.1492,-2.4043
TcNiRu4,27.8631,27.6213,-0.2419
CoRu4Pb,22.7721,23.6259,0.8538
LiLa2Fe,43.0261,33.5523,-9.4738
YGe2Au,16.8332,18.3832,1.55
LaPr4Y3S8,31.7708,23.1429,-8.628
La4ScPb,44.2408,35.3527,-8.888
Sc2CdRe,41.3574,35.0097,-6.3477
CaCeRu,15.3373,17.899,2.5617
ErTm4Sc15,11.4539,12.8173,1.3633
CaAcCu4,17.2307,17.5939,0.3632
Pm2ZrSc,39.8443,36.099,-3.7453
Na2IrPdBr,25.0516,23.3785,-1.6731
Cs2HfGa2,40.2304,32.2364,-7.994
GePt,21.566,18.4197,-3.1463
Na2LaInBr6,17.4762,16.4498,-1.0263
V2BMo2,49.0822,41.7116,-7.3706
PrY2Cu3,24.604,19.1562,-5.4478
Ta2As,18.1108,27.4984,9.3877
Ti4Sn2Au3,35.7323,27.1687,-8.5636
PmNd5Tm3,22.5376,25.1465,2.609
Tb3Nd5Sm,21.1679,23.2796,2.1117
Er3NiSn3,19.9008,21.4567,1.5559
CeSmY,21.3293,24.3741,3.0447
Zn2CrAu,19.4732,19.3175,-0.1557
KCa9Mn(PO4)7,21.6568,17.4247,-4.2321
Pr15Er4Sc,2.63,3.7109,1.0809
Nd5Sm3Ho,20.973,23.6355,2.6624
Nd5SmHo3,21.7651,23.9033,2.1382
H4PbI3N,2.4392,5.1146,2.6754
Co2(Ni7B2)3,9.9992,10.0416,0.0424
CoOs2Ru,26.62,31.7631,5.1431
Hf4Os3Ru,88.813,69.4478,-19.3652
Ta2OsPb,42.2823,45.9504,3.6681
CaAcGa4,16.6545,18.5483,1.8937
CaDyGa4,10.462,12.4411,1.9791
NiPb3Au,43.0859,43.8905,0.8046
CaRuO2F,27.6013,23.4259,-4.1754
InRe2P,46.6775,42.2734,-4.4041
NiPbAu2,38.5759,41.6673,3.0914
NaCoIr2,24.3234,28.9129,4.5895
Ca2Zn(IO)2,32.6773,30.4587,-2.2187
Ni2RhAu,27.3302,25.8426,-1.4876
Cu4RuCl,9.381,10.064,0.6829
FeMo,18.0531,13.9447,-4.1084
Al2BiF,31.3302,29.6554,-1.6748
Na4SiSe4,29.3698,22.5413,-6.8285
NaPbI2,30.3728,29.9742,-0.3986
Sc4GaPd,11.2171,11.0969,-0.1202
TlIr2,46.5122,49.2405,2.7282
Pr3Nd2Y,4.62,6.8788,2.2588
NdYHo2,23.801,26.8392,3.0382
PuBi2Pb,58.4239,60.3647,1.9408
Pm5NdIr3,23.8623,28.15,4.2877
SrMnRu4,30.0627,28.8512,-1.2115
Th2Zn4Ga3Au,23.0793,24.5885,1.5091
AcPrGd,29.724,32.4847,2.7608
SiPt,33.1934,24.8378,-8.3556
CaTbIn4,18.1152,19.9495,1.8342
AgC,14.7851,8.7687,-6.0164
Pr3Nd4YTe8,26.3583,25.8544,-0.504
ScIn3Br,18.5184,16.5992,-1.9193
K(YGe)2,15.078,12.846,-2.232
SrNbBr2,46.3157,38.5376,-7.7781
TaSbTe2Os,43.007,40.884,-2.1231
Nb3BiBr,99.1957,81.2457,-17.95
BePbAu4,40.6162,42.1397,1.5234
AcPrGd,29.7761,32.4847,2.7086
CuIrPt2,51.8031,43.008,-8.7952
CaMn2Cu3(RuO6)2,37.5639,33.7831,-3.7808
Ca2ZnFe(SiO3)4,17.0413,14.4466,-2.5946
NaPr2(YTe2)3,24.9156,23.7318,-1.1838
Sm3Au,30.405,33.0678,2.6628
Sc2BIr,14.2846,15.0547,0.7702
Sm2Au,31.9476,34.8787,2.9311
Ti4V2Pd3,36.5245,32.1088,-4.4158
AgOsI2,31.0073,29.8374,-1.1699
TbY2PuN4,42.1492,39.0934,-3.0558
ScIn2Br,13.8987,14.061,0.1623
Tb2YHfN4,38.7823,33.0189,-5.7634
CrCoOs2,25.1628,28.674,3.5112
BaRh(PbO4)2,12.6352,12.7234,0.0883
LiCa4Ni,7.3169,6.5266,-0.7902
AlAg2P,33.6244,26.699,-6.9254
CsAc(BiAu)2,48.1296,49.5067,1.3772
Sr3(TlAu2)2,36.2106,37.3108,1.1002
Er4Tm15Sc,29.1436,30.4422,1.2986
TaCuSi2,13.0604,14.5125,1.4521
Mo2PIr,31.1526,26.3695,-4.7832
TcPBr4,25.2365,22.5842,-2.6523
TaCu3Si,18.3239,16.105,-2.2189
MoPIr3,38.146,35.7828,-2.3631
Ca2TaVO6,29.7054,26.1424,-3.5631
CaSb3P3O13,18.6831,14.7353,-3.9478
LiAl2I,13.0347,10.0695,-2.9652
SrCaNi4,9.6281,8.1002,-1.5279
Mo2PIr,30.9992,26.3695,-4.6298
La2Ti4Nb,38.5581,31.716,-6.8421
CuIr4Cl,32.4067,33.5601,1.1534
CaYW2,28.2914,25.6074,-2.684
TbY3N4,48.5203,41.9,-6.6204
ZnGa2P,15.3642,13.4907,-1.8735
Ni21(B3Mo)2,10.5034,10.8515,0.3481
Sr(ZrIn)2,44.8323,41.8748,-2.9575
HoNpCo10,13.2286,15.2719,2.0433
ZnTcPb3,52.0753,49.3396,-2.7357
CaGaTeO5,20.2524,17.9246,-2.3278
CaNpGaO5,19.9045,20.867,0.9624
Ho3Tm(ThRu3)2,28.2572,30.9866,2.7294
Ca2Nd4Sn3O2,31.4517,29.1571,-2.2946
CaRhOF2,30.6773,25.7575,-4.9199
TaSb2Os,42.4968,41.4974,-0.9994
TcIr2,51.4834,51.2846,-0.1988
CaPaPtO5,22.064,21.4234,-0.6406
TlCuAgH2,21.9953,19.7492,-2.2461
Pm4Pb2Au,35.6764,37.1619,1.4855
Na4BeI2,25.9162,23.2281,-2.688
SrRuF2,8.3749,8.3361,-0.0388
Ca12Sn4PbO3,22.9731,21.1623,-1.8108
LaNpCo10,15.2228,15.8309,0.6081
CaNb2Tl2O7,38.2107,33.254,-4.9567
CaAlSeO5,10.651,10.6552,0.0042
TaOs2Pb,43.738,47.4893,3.7512
TcNiIr,47.9838,45.9749,-2.0089
Sc(TcAs)2,64.3801,54.0245,-10.3556
TaOs2Pt,52.26,50.0016,-2.2584
BeTcAs2,32.1599,26.6349,-5.5251
BaMgMn,36.9085,28.7453,-8.1632
K2ReAg,24.9702,22.9745,-1.9957
Be2TcAs,30.2733,24.9166,-5.3567
TePI2O,34.8323,29.2284,-5.604
RbLi3C,14.9331,10.0473,-4.8858
BeTcAs,39.7022,33.4344,-6.2677
BiSbRu3,30.8867,31.0508,0.1641
TbHoAl,19.143,22.0555,2.9125
CaLa2BeO5,9.9278,10.5277,0.5999
BaRh(IO4)2,19.4183,16.286,-3.1322
IrPbBr2,37.8909,36.3951,-1.4958
TmNi5As3,16.63,13.4469,-3.1831
BeTc2As,52.9292,43.9014,-9.0278
BaAl2Te,21.37,18.5007,-2.8693
BeTc2As,52.7497,43.9014,-8.8484
CaUCuO5,11.5548,15.0815,3.5267
CaCuIrO5,11.1433,12.9275,1.7842
Er15ThSc4,26.3818,27.7272,1.3453
Al2TlV2,57.6061,48.0432,-9.5629
CaCr2Fe,27.2943,20.2436,-7.0507
Ca2TbPdO6,27.2487,25.21,-2.0388
In5Ru,19.3061,21.4216,2.1155
Y2TcN,92.5317,78.1227,-14.4089
Sc3CdC,12.6379,12.0802,-0.5577
CSeIN2,40.7421,33.1804,-7.5617
BePb4Au,43.6765,44.1865,0.5101
Hf2CoOs,74.5387,59.419,-15.1197
MnNi4Ag,42.9506,38.7076,-4.243
CaPr4Nd,-0.0,0.7281,0.7281
AcTlBO3,13.307,14.6169,1.3099
InRu,12.2043,18.8408,6.6365
Re2Sb,42.5785,43.2185,0.64
Tl2Zn,35.1453,35.9416,0.7963
AlReSi3,27.2741,22.6526,-4.6215
Pm2Co3P4Ru,24.1643,19.3464,-4.8178
Re3Sb,41.8257,43.6831,1.8574
LiLaTi2,11.0593,9.7967,-1.2626
Al2ReSi,25.1985,24.3523,-0.8461
GaGeP,13.781,11.9655,-1.8156
SmNbCo10,18.9984,18.1524,-0.846
RePbS2N,91.8952,78.5794,-13.3157
PrYPd2,19.1764,18.322,-0.8543
HfBeAl2,43.6119,33.3053,-10.3066
Al2ReSi,25.4153,24.3523,-1.0629
Pr4TmCd2,3.6279,6.3366,2.7087
TlAg2(BO3)2,148.8747,132.3165,-16.5582
AlReSi,33.3507,32.406,-0.9447
SrWI2,29.8885,23.5951,-6.2934
AlReSi2,28.3794,26.4791,-1.9003
Ta2Tl2Os,45.2962,47.2422,1.946
NaHf(TlSe2)2,57.0088,45.6075,-11.4013
CaPr4Os,0.788,3.0104,2.2224
ScRe2Au,47.1145,43.5619,-3.5526
Sr3(PuIr2)2,45.4213,41.1504,-4.2709
NaSeI2,27.2258,23.7585,-3.4673
Sc3Tc,57.4715,48.7764,-8.6951
CaEuPb4,40.262,41.3034,1.0414
Sr3(Ac2Os)2,42.5079,43.9854,1.4775
PrYSc3,0.0,2.8669,2.8669
KCr2Br,24.8103,20.6391,-4.1711
SrCa7FeCo7O24,20.5412,16.6842,-3.857
MnNiMo4,45.2628,43.2359,-2.0269
BeHg2As,6.7525,4.9451,-1.8073
BaB2Se,9.3904,9.295,-0.0953
Ca2Tl2ReO6,35.1582,32.2816,-2.8766
LaPrSn2,21.3874,20.3959,-0.9915
ReNF3,65.3468,58.5667,-6.7801
TlTe2SeI,42.0164,38.697,-3.3194
Er3TmRu4,22.5267,25.3871,2.8605
CaTb4Pr,14.191,17.1896,2.9986
Be(HgAs)2,4.4659,3.744,-0.7219
Tm6Pd2Ru3Au,25.5153,28.0229,2.5076
AcPr7Y2,8.6114,8.474,-0.1374
BeInTc4,65.9762,55.1763,-10.7999
AcTb2RhO8,12.3115,12.7652,0.4537
BMo3Ir,24.9847,21.9477,-3.037
Ca2ZrMo,31.4201,29.272,-2.1481
Zr2MoHPt,59.8043,49.8794,-9.9249
MgAs5,10.6495,10.0095,-0.6401
CaTcO3,37.7796,32.2553,-5.5243
CaZrMo,39.8987,37.5171,-2.3816
Mn21(ReN3)2,92.2407,74.8537,-17.3871
Mn21(TcN3)2,78.4876,62.2788,-16.2088
Ca2ZrMo,31.5979,29.272,-2.3259
MgTc5,77.9922,64.5572,-13.435
Mn3SiTe,72.2461,57.5783,-14.6678
Si2Te3,27.4753,24.3951,-3.0802
CaCrFe2,30.5784,23.5301,-7.0484
Mn21(WN3)2,74.7205,60.1075,-14.613
Mn2SiTe,58.0123,46.8056,-11.2068
TbNd2(URu2)3,31.2315,33.2615,2.03
Mn21(PN3)2,76.6894,60.2085,-16.481
ZrSc2Ag,29.3578,28.1665,-1.1913
MnTlNi4,46.2342,42.7911,-3.443
Li3CaO,18.5296,15.8688,-2.6607
TlPt,70.2858,59.3644,-10.9214
TcNiAs3,34.2423,27.7928,-6.4495
NaSr2AgPt,34.2306,27.2252,-7.0054
TcHg3,21.7108,18.0966,-3.6142
PmAl(InS3)2,35.0055,27.1561,-7.8495
PrAl(InS3)2,32.5944,24.1746,-8.4197
YTcN3,40.3606,34.3878,-5.9728
AlIn2PbS6,38.8037,30.7804,-8.0234
Zn2CrTc,30.7738,26.1026,-4.6711
SrMo2Au,23.991,26.067,2.0759
NaLi2LaRh,25.2385,18.8316,-6.4069
CaPtO,53.9492,44.4297,-9.5195
YPuCo10,18.5804,18.8358,0.2553
ZrB3Mo,25.0535,23.274,-1.7795
PuNi5Ge3,13.3714,12.5114,-0.86
Ta2SiOs,32.2746,36.1809,3.9063
NiTe2,26.5203,27.7606,1.2403
CaPt2O,62.6252,48.3047,-14.3205
ReNiIr2,52.835,44.6317,-8.2033
Re(NiIr)2,35.3616,31.405,-3.9566
Hf2Al,97.0222,69.5706,-27.4516
KY3(AsO3)4,14.8911,14.3673,-0.5238
MnNi4Os,44.7505,42.3019,-2.4486
CaCr3Fe,25.4964,18.1996,-7.2968
TaSi2Os,26.8805,27.7209,0.8405
NaHoSn,16.8902,19.1898,2.2996
MgTa4As,28.6226,29.9349,1.3123
Sc2TaW,75.5619,65.4273,-10.1346
AlTc4Br,65.8965,54.0501,-11.8464
Re2NiAg,49.1672,38.0571,-11.1101
TeOs2Pd,36.5722,38.9814,2.4091
HfTl2HgSe4,54.0913,43.3808,-10.7105
HfZrCo10,25.1574,21.8201,-3.3372
CaPaO4,16.066,16.9974,0.9314
B3MoAu,15.0067,16.5707,1.564
TaAs2Os,24.8432,28.8611,4.018
BMoPd3,17.0701,16.124,-0.9461
CaSmO,38.0073,35.7531,-2.2541
ScTaW2,83.8116,75.0911,-8.7205
Rb2HfAuSe4,42.9089,33.2097,-9.6992
ZnTePb2,38.8232,39.0559,0.2327
CaSm4Tm,22.6771,25.1,2.4229
Ca2WN2,14.4322,8.1499,-6.2822
Zn4Pb3,27.166,28.0308,0.8648
Fe3AgI,12.5751,11.6748,-0.9003
Ta4CrMo,45.9429,41.2154,-4.7275
Ta2GeOs,31.2139,36.1286,4.9147
Ta2InOs2,25.8089,33.0275,7.2186
Te2AsPb,36.7175,35.9566,-0.7609
La2AlNi9,13.1358,12.2555,-0.8803
CaNiMo4,24.2448,24.2488,0.004
Y(AgI2)3,14.9994,13.8794,-1.12
CrGe2(PbO3)3,12.4487,13.0807,0.6321
Ti3Al3Rh2,16.247,13.1203,-3.1267
CoRuPt4,63.8324,48.079,-15.7534
Y(AgI2)3,15.031,13.8794,-1.1516
Zn2TePb,27.6323,27.6317,-0.0006
SmPbO2,18.3887,20.7726,2.3839
NdTl2Sb,42.3519,41.9569,-0.395
La2Pr7Y3,11.1403,9.1193,-2.0211
CaSmPb4,39.8154,41.2237,1.4082
Zn2PPb,18.1024,19.4335,1.3311
ScWBr3,18.4996,17.0275,-1.4722
Ba3(Sr2Ac)2,20.4102,21.9953,1.5851
AcPm6Nd2Y3,25.3672,26.6292,1.262
TaTi5Os4,22.3306,26.7804,4.4498
NaPuSiO5,3.6033,6.1283,2.525
CaLaSn4,18.3831,18.2058,-0.1773
Te2AsP,33.3562,31.749,-1.6072
CaPmSn4,14.0205,16.5478,2.5273
V2CdO10,15.0279,11.7005,-3.3275
Tm2TaRu3,23.9211,28.0842,4.1631
RbTaOsRh2,36.8895,31.5264,-5.3631
As2PPb,28.2948,26.6554,-1.6394
ZnPPb,21.7765,23.012,1.2356
Rb3H3Rh,4.9424,2.39,-2.5523
Sr2Tl4Cd3,34.0046,32.6323,-1.3723
TePPb,33.3294,33.2572,-0.0722
Th5NiSb3,46.8007,45.9218,-0.8789
Sr3(Tl2In)2,31.1377,32.068,0.9303
Ta4CoRu,42.8576,39.4137,-3.4439
CaSnHg4,4.1571,4.6247,0.4676
Ta4Os3Pt2,49.7989,47.4188,-2.3801
Pm2BeRu,29.6495,28.0535,-1.5961
TiInRu,13.3663,16.8537,3.4873
Sr4CaIn,14.1403,14.5575,0.4172
TaNb5H4,74.3387,61.1333,-13.2054
Tb2Ho3Th4,44.7356,47.5198,2.7843
TaAg2Os,35.5292,35.1319,-0.3973
LiMn2Al,53.7255,43.0741,-10.6514
BaMn6O12,81.1131,71.2991,-9.814
Pm2H4Cl,6.8704,9.6397,2.7694
RbZnFe3,4.8208,4.1293,-0.6915
Zn3CrP,26.4973,24.153,-2.3443
Sm2HSe2,22.4067,23.997,1.5902
InOs2I,32.8736,35.1343,2.2606
YTcSeN2,60.4066,49.7607,-10.6459
InW,22.6705,29.0278,6.3573
CaCrFe2,30.8028,23.5301,-7.2727
ScIrRu2,28.4062,24.4475,-3.9587
Ta3NiIr,32.8125,36.2766,3.4641
CaWN3,28.9511,18.6272,-10.3239
Sb2WC,49.7705,41.5065,-8.2639
Pr(TmGe)2,9.2431,13.2081,3.965
Sm3In3PdRu2,20.0222,21.9969,1.9748
InW3,34.3595,39.2163,4.8568
CaMn3(BO3)4,45.8546,40.8226,-5.032
Re2PdW,34.0943,38.8097,4.7153
K2TlAg,26.6109,24.324,-2.2869
Tb4AgSb,25.7637,25.869,0.1053
Tb2YTcN4,28.2579,24.7992,-3.4587
FeRe4Au,42.4949,41.2162,-1.2787
NaLa3Ti,41.9249,30.889,-11.0359
LaZrCo10,17.5371,16.5184,-1.0187
Ba4Si2H,4.703,3.8423,-0.8606
ZrNbCo10,25.0764,22.8578,-2.2186
Ba3ErIrRuO9,-0.0,0.6182,0.6182
Cs2SrCrF6,14.8385,13.2296,-1.6089
TaNiIr3,36.4553,38.1839,1.7286
NaLa3Mn,57.0078,45.9419,-11.0659
BaLaZnRuO6,20.5606,16.8771,-3.6835
SrY2Be,16.6092,13.9245,-2.6847
Cs2CrMoF6,15.1836,13.5872,-1.5964
P5Os,10.2022,12.2302,2.028
ZrNpCo10,19.0675,19.7051,0.6376
Sc(MnAs)2,47.9016,36.691,-11.2106
P3Os,13.5311,16.3304,2.7993
Pr2Ge2Ru,20.4293,20.9782,0.5489
La2NiBi,40.6562,35.6099,-5.0463
P2Os,16.383,19.5826,3.1996
POsO3,16.7245,14.7914,-1.9331
Pm3VN5,13.45,13.0183,-0.4317
NaSrPtPb,44.6595,38.5402,-6.1192
PrZrCo10,12.835,13.1705,0.3355
Tc2Ru4Pt3,57.5774,46.8253,-10.7521
Tc2Ir3Os4,43.2401,43.9189,0.6788
Tc2Ru3Rh4,53.7928,41.6695,-12.1234
Cs2KCrOF5,13.2887,11.9883,-1.3004
Li2CaFe,15.9697,13.7037,-2.2659
Pr2Y(IN)2,23.9794,21.7199,-2.2595
SmTmCo10,9.6482,11.5979,1.9497
CSe2S,50.6044,37.0768,-13.5276
Ta3Ru2Au3,35.3847,38.518,3.1333
AcPaCu10,16.5727,18.0093,1.4365
CaTb2TmSe4,43.8861,37.3001,-6.586
Zn(H2Rh)2,10.9892,7.9076,-3.0816
AcPr(YP2)2,25.0584,21.4236,-3.6349
HgRh2W,33.9727,29.5137,-4.459
TlOs2Pb,47.8783,50.5032,2.625
La2BeFe,35.2997,25.3951,-9.9046
CsPmPt10,78.3579,56.9996,-21.3582
LaBeFe2,22.582,16.4133,-6.1687
BeNiAg2,18.0996,15.6754,-2.4242
Tm(SnRu)6,19.2276,21.243,2.0154
NaNdMg2,13.6582,13.8707,0.2125
La2BeFe,35.2695,25.3951,-9.8744
Pr3YP4,7.1263,6.4964,-0.6299
Cs2TlFeF6,13.2483,14.7884,1.5401
CsAcAu10,46.5119,47.3485,0.8366
Fe3HgC,16.8513,12.385,-4.4663
AcPr2(DyTm)2,24.4759,25.9848,1.5089
Mg2CrBiN5,20.8079,18.5626,-2.2454
Ho(SnRu)6,19.0389,20.9456,1.9067
InIO4F,16.7654,14.8566,-1.9088
Na2SrTi,21.1773,18.4654,-2.7119
Ac2SnRu,38.9615,38.6173,-0.3442
SrSnRh,12.2884,12.5628,0.2743
Cs2FeOsF6,16.7569,15.1795,-1.5773
FeRe4Pb,43.5485,42.306,-1.2426
PaIrRuAu,47.3404,46.34,-1.0005
ZrBe,36.9065,36.8927,-0.0138
TaP3I,17.6059,15.7565,-1.8494
Sr2PrY,11.9845,11.8002,-0.1842
TiH8Ru3,4.5659,5.8785,1.3125
FePBr2,23.6774,20.5415,-3.1359
ScMn2As,66.2043,51.6266,-14.5777
RuSeN,54.5801,46.9421,-7.638
PrSm(YP2)2,20.0639,16.5135,-3.5504
Rb2HfSbSe4,42.6688,31.5552,-11.1135
SrMnSe2,52.0705,42.0251,-10.0454
RuSe3N,53.4429,43.3068,-10.136
ScMnAs,54.8844,43.32,-11.5644
La4Te2I3,38.5902,32.9437,-5.6465
Pr2YPd3,8.7889,9.9765,1.1876
AlIn2Co,24.9302,19.9973,-4.9329
H6Pd2Rh,9.462,8.6192,-0.8428
NbSiPb2,61.2482,54.8146,-6.4335
Mn2PSe,56.1023,44.3214,-11.7809
H6Pd2Rh,9.5801,8.6192,-0.9609
Ho6Ir5Ru,34.2745,35.4416,1.1671
AlZn(GaS3)2,32.4529,23.7616,-8.6914
PrYP,15.2911,11.5597,-3.7314
In(GaNi)2,5.4981,8.5747,3.0766
Hf4Ti2Pb3,75.0192,57.6576,-17.3615
Tm6Ru5Pt,28.9211,29.6628,0.7417
RuRh10,50.1212,37.016,-13.1052
SrMnSi2,47.0465,34.6606,-12.3859
CaNi4As,17.1096,12.8532,-4.2564
Y3BeC,31.8337,24.7305,-7.1032
MnPSe2,50.0375,39.8369,-10.2006
PdRu2PbO8,17.4754,15.2886,-2.1868
Zr7Be,86.1689,71.9312,-14.2376
Tb2PuRu3,28.6823,31.4188,2.7366
ReMo,34.0921,33.8643,-0.2278
BaZnP2O7,4.4805,1.7437,-2.7368
Ba2NpAlSe6,33.1169,27.9314,-5.1856
LaZn2Cr,20.7039,17.9889,-2.715
TcSeBr4,32.4527,28.0646,-4.3881
Ta3AgOs,39.0352,40.2861,1.2509
AlAg(SnSe3)2,32.2518,26.5041,-5.7478
Tb2Nd2Y4Er,20.8036,23.0422,2.2386
Tb6Nd2Y3Th,26.4032,27.818,1.4148
CdGa2TcGe,28.8532,26.0682,-2.785
LuHf5,125.3929,89.3492,-36.0437
La4FeRu,49.9583,35.0943,-14.864
TlRu2PtO8,18.7033,14.5679,-4.1353
Pr7YIn4,6.7064,6.8608,0.1545
ZnFe4Os,15.9487,13.4243,-2.5243
Zr4ZnOs,74.361,64.3595,-10.0015