Formula,E_hull_DFT (eV/atom),E_hull_ML (eV/atom),Delta (ML - DFT)
Na3LiY,18.0876,15.7674,-2.3202
Sc(CrGa)2,14.1857,12.9323,-1.2535
Li8Ge,1.3207,2.2243,0.9036
NaPm2In,23.3846,24.0991,0.7145
YAsW2,27.6732,23.1616,-4.5116
TaTlSe,46.0232,43.6941,-2.3291
AsPb2W,40.2733,40.7035,0.4302
TaCd2Pt,41.2891,37.0939,-4.1952
AsPb2W,40.2797,40.7035,0.4238
GeRuPb2,33.1773,35.3643,2.1869
HfMoAs2,37.6225,30.8084,-6.8141
CsK2Rb,11.6235,10.7783,-0.8452
YAs2Pb,21.5532,23.9155,2.3622
Ca2Pm4Sm,19.7635,20.9823,1.2188
GeBiRu2,18.6497,23.1302,4.4806
Ge3BiRu,21.5383,22.0386,0.5003
Ca2BeNi2,11.8341,6.834,-5.0001
BeRh2Au,36.3083,30.87,-5.4383
Fe2CuSi,25.106,19.2105,-5.8955
Ge2Ru2Pb,20.698,23.0357,2.3377
Li2YP,18.0245,12.9968,-5.0277
TaTl2Se,47.5884,45.8025,-1.7859
Sr3(ZnIn)2,13.2973,14.5606,1.2634
La2Ce2Ru,27.4921,25.3057,-2.1864
Ba3Nb(AgO4)2,13.4802,11.5926,-1.8876
TiCo2HgMo,20.9326,18.9693,-1.9633
Sr2Sn3Hg5,6.4699,7.6851,1.2152
Ba4ZnIn,4.3564,5.8331,1.4767
SrCo2Pt,28.6889,24.5228,-4.1661
Ba4TmNb3O12,20.4815,17.8482,-2.6332
Sr3(TlZn)2,22.1447,23.3545,1.2098
Ba4Nb3CdO12,20.4575,17.053,-3.4045
TaTlCd2,32.3711,33.6659,1.2949
ZnInAu4,33.0093,34.8309,1.8216
ScFeIr2,43.6336,43.9279,0.2943
Y2ZrP,45.9977,37.7243,-8.2734
TaCd2W,29.1868,31.8526,2.6658
TiPdRh2,29.6487,24.6101,-5.0386
KCu2Rh,19.3805,16.3011,-3.0794
PrInIr,6.7403,13.9959,7.2556
Tb3(TmZn)2,22.2297,24.8473,2.6175
Zr2MoRu,58.3846,51.8815,-6.5031
Pa2Zn2Tc3,61.0496,55.1866,-5.863
CaThCuS3,35.3447,28.3152,-7.0295
Sr2In3AgPd4,18.3519,18.8754,0.5235
La4CeZn,39.8043,32.0417,-7.7625
TmHfSn,58.1901,48.9098,-9.2803
ScBePb2,30.4959,30.5044,0.0085
ZrSn,39.6643,37.1935,-2.4708
Ba2NbIrO6,17.0144,15.4306,-1.5838
ScBePb2,30.3962,30.5044,0.1082
InNiRu,8.4531,13.1871,4.734
LaTlSbI2,38.0928,34.0118,-4.081
Tb2(NdDy2)3,26.6488,28.5401,1.8913
Ba3NbAl2O8,13.6621,10.8591,-2.803
PmTiSb2,29.4401,28.2839,-1.1562
Ba2YHf2ScCu2O11,33.6588,26.8251,-6.8337
V2Co5B2Pd,24.1754,20.6254,-3.55
Li2ReSe,22.3671,21.173,-1.1941
NaAs2W,22.4223,22.1419,-0.2805
Ba2NbOsO6,16.6687,15.4233,-1.2453
SrCo2Sb,18.8267,17.777,-1.0497
Hf2PdRu,79.6505,60.7862,-18.8643
HfPa2Pd,74.1284,67.183,-6.9455
CdCuSnCl2,29.0374,25.1023,-3.9351
Mo2OsPb,38.6025,35.4708,-3.1317
Ba4Nb3ZnO12,22.4457,18.1815,-4.2642
SmCuSnAu,47.0521,44.2605,-2.7915
Fe2SiOs,24.3284,18.8346,-5.4938
Na2CdCuP2,13.2093,11.7233,-1.486
FeSiBr,10.5706,8.6537,-1.9169
Ca3RuI,15.849,14.3895,-1.4595
Nd3(Tm3Th)2,35.6635,37.5026,1.8391
Ce2PuSb,41.2993,41.9828,0.6835
HfZr2P,85.9378,68.8274,-17.1104
TaHgOs2,30.2411,34.5811,4.3401
Fe2ReSi,25.7759,20.0165,-5.7594
SrYCo2,29.3624,25.9186,-3.4438
Ce2YAg,23.9543,24.8411,0.8867
AcCuPtO6,17.3614,16.2598,-1.1016
Li3Y,3.9306,5.4733,1.5427
TiBiSe2,32.7459,30.2583,-2.4875
Tb2Nd2Y2In,22.2807,23.8115,1.5308
Na2Nb2C,73.0822,56.6392,-16.443
SrLa3Ir,29.509,22.5607,-6.9483
LiCaNd2,13.9099,16.0639,2.154
Y6GaAs2,11.8958,13.9802,2.0844
YAgB3,48.8158,40.436,-8.3797
RbGe,9.492,0.9621,-8.53
YAgGe,15.3548,14.1807,-1.174
BeTe2Mo,23.6526,21.7346,-1.9181
Ta4Al2H3C2,24.8102,23.8426,-0.9676
Cd2TePt,42.5333,36.0173,-6.5159
TaBeSeN2,36.3137,31.3301,-4.9837
AlGaTe2,20.503,20.1338,-0.3693
LiY2Zr,31.8013,29.5873,-2.2141
AcGeSbPt,51.6129,45.6424,-5.9705
Rb2ZnTe,11.27,11.6387,0.3687
RbHfTc2,77.8097,59.3998,-18.4099
LiY2Zr,31.8065,29.5873,-2.2192
SiSb2TePb,40.2532,35.4402,-4.813
TaCo2Os,43.8569,37.8849,-5.9721
Cs(AlGa)2,9.441,10.6431,1.202
CsAl3Ga,10.0478,10.4192,0.3714
Ba3In5S12,25.3469,17.4781,-7.8688
Cs2AlTe,23.3142,23.155,-0.1592
CsAlTe,19.5413,19.6184,0.0771
HfVNO2,54.1848,39.5891,-14.5956
LiYZr2,52.964,46.4277,-6.5363
Tb2ThRu2,29.9349,33.3105,3.3756
AlGaTe3,23.7476,23.601,-0.1465
PuHfZn4,40.8735,35.1918,-5.6816
Sr(Tl2Cd)6,39.4322,39.3483,-0.0839
Rb2HfTc,57.0324,43.222,-13.8104
Be2TeMo,19.0268,16.1876,-2.8392
Li2SiAs,16.6032,13.8728,-2.7304
Li2SiAs,16.4974,13.8728,-2.6246
Ca2LaTaTi,21.5002,20.136,-1.3643
As3AuF,18.222,18.5286,0.3066
Sb2TePbC,51.1897,42.901,-8.2887
BeTe2Mo,29.1809,21.7346,-7.4463
NaCaFeC,33.0163,25.9114,-7.105
LiYZr2,52.9552,46.4277,-6.5275
Ca(PdN)2,18.0447,15.6324,-2.4123
Tl2AgS2,45.8571,38.6273,-7.2297
Fe2RuW,24.7247,21.9948,-2.73
KTh(CuP)2,21.8112,20.8515,-0.9597
Cu2NiAs,17.0327,14.4784,-2.5543
ThIn4Au,28.0507,30.0596,2.009
Rb2NaSe,16.815,12.9506,-3.8644
MgCd2Ni,13.7182,13.725,0.0068
Mn2SnCl6,26.2148,21.9163,-4.2986
LiYZr2,53.0242,46.4277,-6.5964
Ac2La(RuI)2,43.8819,39.5905,-4.2915
Tb3Dy3Th8,49.4769,50.7106,1.2338
Tb3Dy8Th3,35.6549,37.1123,1.4575
LiYZr2,52.9101,46.4277,-6.4823
K2SbOs,28.4872,26.4696,-2.0175
TmInBr2,17.7231,19.6557,1.9326
AcGa4NiPt2,34.7851,29.9537,-4.8314
HOsPt4,66.7698,52.8816,-13.8882
Gd2CuTe,26.1608,27.5164,1.3556
InSnBi2,37.5165,36.835,-0.6814
Y3ZrC,49.3819,41.0042,-8.3778
Nd6CoHg,19.2092,20.6459,1.4367
CeNi,2.581,6.4201,3.839
Nd8Ag2Sb,27.4755,26.7274,-0.7482
TlCd2W,32.6494,34.22,1.5706
NaCa2Sn,11.5885,12.6753,1.0868
Ac3Pt2Br,58.0655,51.6394,-6.426
HfZn4Au,36.7156,30.5046,-6.211
TaCo2Re,43.4834,37.3383,-6.145
Cs2CaPt,33.2361,28.7645,-4.4717
Nd5ScSb6,32.5996,30.0163,-2.5833
AcThGa2Pt5,65.2439,51.7917,-13.4522
LiRu2Au,20.2388,22.6432,2.4044
LiCaFe,13.1718,11.8651,-1.3068
PmSm2Sb,29.3899,29.5585,0.1686
Li(YP)2,21.813,14.5295,-7.2835
Ac2CuPt3,60.5091,49.9227,-10.5864
ZrSn2Au,46.4431,43.9379,-2.5052
YInAsBr2,14.0933,14.0549,-0.0384
Ac2Pr2Rh,28.3153,27.6468,-0.6685
TaAl2I,19.5933,18.9128,-0.6805
LaNdZn4,17.4677,16.7542,-0.7135
LiYC,31.6381,27.456,-4.1821
Ba4NpNb3O12,22.5688,19.8982,-2.6706
Y3AgPd5,23.3055,20.4462,-2.8594
TaCo2W,43.9115,37.3493,-6.5623
Li2RuAu,16.2097,17.9399,1.7302
Dy2(FeB2)3,4.8651,6.8839,2.0188
Y3Cu4,31.8137,25.0747,-6.739
CdRu2Pb,26.4711,29.8927,3.4216
TaNb2Se,83.9174,70.4274,-13.4899
TiCrN2O,12.8164,11.1881,-1.6283
CaMgP2,17.2052,14.7078,-2.4974
CaMg2Tl,15.1649,16.6558,1.4909
CdRu2Pb,26.6568,29.8927,3.2359
La4ZnPd,33.6516,25.1743,-8.4773
NpTlSe,49.5539,48.5311,-1.0228
Fe2SiW,16.8536,16.7834,-0.0702
ScFeW2,41.6611,42.3945,0.7334
SmY(BiO3)2,21.0298,21.4588,0.429
TaSiSe2,36.9522,31.6328,-5.3194
TiPdN2O,16.3223,15.2063,-1.116
LiY3O,22.8082,20.9328,-1.8754
PmTmZn4,13.9729,15.9317,1.9588
TlNiPt2,54.4725,44.3251,-10.1474
Ba4Nb3InO12,21.6532,18.1413,-3.5119
Ni2RhCl6,9.1957,8.3197,-0.876
Er6PSe3S2,34.9535,32.2436,-2.7099
Pd2PtCl6,12.8579,11.4615,-1.3964
Sm2Sc3Rh2,22.7752,20.5617,-2.2135
Cd2AgSb,28.7367,25.746,-2.9907
TaSiSe2,36.8829,31.6328,-5.2501
Tb4AuC,29.8755,29.4175,-0.4579
LiYO,28.8581,25.4387,-3.4193
Li2CrSi,11.6951,10.2518,-1.4434
CeLu2Ga,24.9096,27.1689,2.2593
CaAc2(PtI)2,50.2995,43.8134,-6.4861
NdPuZn4,21.0531,22.7355,1.6824
NiW2Cl,24.8606,25.9229,1.0623
ScNbV2Rh,91.9033,70.86,-21.0433
CeDyIr2,34.0823,37.4403,3.358
PrZn4Ir,14.1718,13.4751,-0.6967
Ac2LaPt3,73.7177,59.4193,-14.2984
KZnRu2,14.3246,15.4831,1.1585
Co2TcAu,39.3055,36.5751,-2.7304
ZrFe2Si,30.197,25.1535,-5.0436
RuPb3C,50.0822,46.5461,-3.536
Ir2RhW2,42.3787,44.4379,2.0592
Tb2Tl2Rh,40.3517,39.7848,-0.567
LuScTcRh,82.2094,68.7948,-13.4147
LiTe2C,37.5056,31.1715,-6.3341
La2TbErTl2,38.9544,36.1687,-2.7856
Tm2RhPb2,42.6326,42.3143,-0.3183
TlRuPb2,43.6186,45.536,1.9173
BaCaSN2,12.8061,10.615,-2.1911
TlRu3C,34.0676,32.1676,-1.9
Tb2YEr2,20.338,24.0182,3.6802
ScPaFeRh,51.0478,46.8448,-4.203
Tl2Re,42.6018,47.9316,5.3298
TlRu2Pb,29.727,33.8898,4.1628
AcNi2Pt3,56.9142,45.5627,-11.3514
ScMo2Pt,40.2705,35.9165,-4.354
CdGaBi3,38.8089,39.3936,0.5847
Rb2CuW2,22.579,17.2694,-5.3096
CdGaBi2,34.3403,35.4374,1.0971
Si2RhF,24.41,19.8929,-4.517
Mn2RuRh,77.1092,61.2852,-15.824
MnRuRh2,64.5539,52.0863,-12.4677
BeCdS2N,46.3203,35.5348,-10.7854
NaCo3B,3.8112,5.2888,1.4776
Nd2ThRh2,35.0232,34.3025,-0.7206
LiCdS2N,27.6284,20.6474,-6.981
Cd3Os,25.2962,26.9798,1.6836
Zn4PtRh,27.8043,22.3886,-5.4156
Y2ZnInRu,20.2182,16.855,-3.3632
NaLiIn,16.4581,14.3335,-2.1246
Ba4AgI2Br,10.0109,9.8826,-0.1283
Sr(ZrPd)2,42.7064,40.1824,-2.524
Ga3SnIr,19.1887,20.0554,0.8667
Zn4AgRh,18.3242,15.6489,-2.6753
Y2Pu2Ni15,29.1593,28.1103,-1.049
MnCrAu4,49.8839,47.3014,-2.5825
LaZn4Rh,21.5657,18.1632,-3.4026
ScMn2Fe,72.1132,60.0829,-12.0303
Y2Ho2Pb5,38.1961,39.938,1.7419
TaMoAs2Se,36.6701,35.0662,-1.6039
Pt2Rh2W,62.9018,48.9445,-13.9573
Zn4RuAu,15.6093,17.1706,1.5612
Sm(TmRh)2,36.1815,32.2839,-3.8976
Ac3Pt2Pb,70.2444,63.5065,-6.738
AcLaPtPb,63.9,55.8969,-8.0031
CsCo3Cl,11.6904,11.7172,0.0268
BaPRu,10.5932,11.2666,0.6733
NaSc3Cu,23.1363,19.0995,-4.0368
HoErSn2,24.1963,26.5716,2.3753
Na12Tl5Pb2,34.368,31.7237,-2.6443
NdY6Tm2Sc3,19.0749,17.5722,-1.5028
Y3GeS6,32.0615,23.9673,-8.0941
Rb2ThCl6,4.0763,6.1797,2.1034
ScBeI2,19.6604,20.3831,0.7226
LaCo2Tc,39.2072,33.6742,-5.533
KRb2P,9.2174,5.3295,-3.8879
Sb2TePPb,38.9485,35.204,-3.7445
RbRuRh,48.2772,39.9191,-8.3581
Ac2GdEr,46.9793,48.5798,1.6004
TeAs2W,27.801,26.563,-1.238
LaTcSN2,40.0041,31.0947,-8.9094
OsRhBr2,29.7826,26.6788,-3.1038
TeAsW2,33.6999,35.427,1.7271
ZrMo3I,35.154,33.6586,-1.4954
NaY2TcAg,63.6873,52.8181,-10.8692
Te2AsW,34.8769,33.8322,-1.0446
BaPRu2,12.6358,14.242,1.6062
BaP3Ru,11.0349,9.65,-1.3849
OsRh2Br,38.9093,33.0249,-5.8844
AgSbAs2,24.206,22.222,-1.984
Rb3ZrMo,25.8737,21.6548,-4.2189
Er2CdP,19.4998,22.6915,3.1917
GaGeRu3,15.0366,16.2297,1.1931
RbP,0.0,1.5284,1.5284
BeZn2Pb,23.1077,19.8293,-3.2784
Li2Tl,17.2023,18.2773,1.075
SrLa2ScRh,33.948,25.8379,-8.1101
NaCuRhS2,33.832,25.2415,-8.5905
KIrBr2,16.1281,17.3714,1.2433
CuReRh2,36.2446,31.3099,-4.9348
Rb2PPdI,15.5109,12.2472,-3.2638
CuRe2Rh,34.0864,34.075,-0.0114
PmEr3Ru4,17.8947,21.1696,3.2749
TlBiRu2,30.1312,34.3443,4.2131
RbTb2Cl6,6.8981,7.3485,0.4504
Na3HoBr6,11.9591,12.3387,0.3796
CuRePb2,38.9159,40.9494,2.0335
ReRh2Pb,48.2224,43.2708,-4.9516
LaLu2Sc,31.0402,29.8001,-1.2401
LaYZn2As,20.1779,16.7281,-3.4499
LaYZnRu,26.6244,21.5216,-5.1029
SrAc5Te8,46.4655,46.021,-0.4445
Na2Pb(IBr)2,27.5667,25.8277,-1.739
VSbPb2,70.2372,61.649,-8.5882
TbHfZn4,33.2081,27.4953,-5.7128
Li2SiP,15.3599,12.5331,-2.8268
AlSb2Pd,28.2409,25.6803,-2.5606
Co2TcRu,30.4064,28.9776,-1.4288
CaSbTe2,34.451,30.4616,-3.9894
MnTc,86.588,73.4336,-13.1544
PPtBr2,30.4234,23.5274,-6.896
Ac(PrRh)2,23.8326,23.2726,-0.56
PPtBr2,31.2219,23.5274,-7.6944
Cr4TeBr,24.9114,21.6819,-3.2295
KPBr,9.1441,9.5136,0.3695
MnCdCu2,33.2154,29.2747,-3.9407
U2SeCl6,22.0407,22.5666,0.5259
Al2Si2Tc,35.9236,29.4722,-6.4513
YHo2TmP4,19.7473,19.1719,-0.5754
SmEuAu,33.1101,35.2295,2.1193
Cr2TeBr,31.8267,27.1143,-4.7124
YHoZn4,13.0682,13.8382,0.77
CrTeBr2,32.0162,28.821,-3.1952
AgGe3N,13.2802,11.8796,-1.4006
ScCdAg4,25.1367,21.1829,-3.9539
SrLa3Os,25.1878,31.3034,6.1156
ReRhW2,33.1782,36.4796,3.3014
SrB2F6,0.2404,2.2741,2.0337
ScIn2Fe,32.243,30.455,-1.788
GeRu3Br,19.3311,18.6438,-0.6872
MnNiRuRh,79.3064,67.1592,-12.1471
PtCI2,47.3519,36.4138,-10.9381
LiYP,23.4437,17.7892,-5.6546
YP3,20.0232,15.4059,-4.6173
Mn2BSb,55.0908,45.1839,-9.9069
Zr2Cd3Hg2,36.2297,32.4626,-3.7671
Ac3Si2Pt,34.5092,32.6054,-1.9038
K2PtI5,24.9898,22.5892,-2.4006
Ac3TePt2,61.9627,56.699,-5.2637
SbOsPd2,32.0631,31.8459,-0.2173
AcNdInPt,49.0448,45.176,-3.8688
SrWN3,0.0,14.1924,14.1924
Re2RhW2,41.9825,42.9298,0.9474
RbP3Ru,24.5847,21.5799,-3.0048
ReRhW2,41.5818,36.4796,-5.1022
Rb3LiRu,25.6385,20.962,-4.6765
YZr2P,66.7658,56.2905,-10.4753
YZr2P,67.1347,56.2905,-10.8442
BeBSb,10.9974,11.7928,0.7954
BeNi2Bi,16.9945,19.4633,2.4688
YZrP2,43.6238,35.376,-8.2479
CeZrZn4,25.3825,24.042,-1.3406
Tb2Y(ZnGa)2,14.9007,16.2939,1.3932
MnPb2Au,63.2275,59.1409,-4.0866
Ca2NbRu2,30.4653,27.7391,-2.7261
SmTmTiAl,16.943,19.0386,2.0956
SrSIN2,21.5758,17.5691,-4.0067
Mn3PbAu,80.3564,68.3166,-12.0398
ZrZn4Au,29.0882,27.6626,-1.4256
CeEuHgPb,25.9137,27.8466,1.9329
CdSbW2,35.6443,37.3952,1.751
Tl2TcCl6,23.5662,23.3381,-0.2282
CaW2Se,54.1996,50.2323,-3.9673
Y2ZrP,45.7217,37.7243,-7.9974
BeNi3C,17.2809,15.3837,-1.8972
CaW2Se,54.2892,50.2323,-4.057
NaBeC,24.22,21.4143,-2.8057
TaSb2OsN,51.3593,44.5772,-6.782
La2TbNd,38.6633,32.7122,-5.9511
HfZrZn4,45.1761,36.7539,-8.4222
GaNi5As,12.2101,11.6758,-0.5343
NaBeC,24.4491,21.4143,-3.0348
SrAgSb,18.5705,17.2939,-1.2765
Sr3Te12As5,21.3502,18.4946,-2.8556
BeGeC,23.9697,21.0216,-2.9481
VB3Sb,37.4965,30.1988,-7.2977
BeGe3C,19.193,16.6198,-2.5731
YPC,21.3707,27.3699,5.9992
Cs(KBi)4,29.563,29.3297,-0.2333
LiYP2,23.8916,19.4354,-4.4562
Tl2CdIr,41.4493,42.8037,1.3544
As2C,28.1873,21.9594,-6.2278
Na2LiSn2,15.3255,14.9967,-0.3288
Co2TcRu,30.411,28.9776,-1.4334
Co2RePb,22.8467,24.7784,1.9318
Tl2CdIr,41.2651,42.8037,1.5386
Co2TcRu,30.4179,28.9776,-1.4403
NaCoSn3,18.6439,18.8244,0.1805
ZrRe3,54.6067,55.0432,0.4365
NbAlN3,29.768,25.5577,-4.2103
CoRe2Pb,29.8972,32.8697,2.9725
Ag3Mo(IBr3)2,18.3889,17.4147,-0.9742
NbWN3,25.9577,23.394,-2.5638
HoZrZn4,25.8723,24.6927,-1.1796
ScIrPdRh,36.9339,29.7534,-7.1805
ZnCo2Ru,16.0653,13.2771,-2.7881
Ge2IrPb,23.6314,27.4732,3.8418
ZrOs3Pt,65.2985,57.78,-7.5185
Y2SnPd2,37.7103,32.5396,-5.1706
YSb2Pd7Pb2,31.1375,29.4151,-1.7224
ReRhAu,46.2947,43.6839,-2.6108
Pm2Y(SnPd2)3,34.6438,31.7363,-2.9075
Nb4Te17I4,50.331,44.1879,-6.1431
TiBeSN2,31.2194,24.6362,-6.5832
Cs2BeMoBr6,13.6899,13.1187,-0.5712
Pr3Y5Er,4.7753,6.2301,1.4548
TiVS2N,49.4476,37.1553,-12.2923
Y3Ho2H9,6.8034,7.2272,0.4238
GdScAgRh,28.1767,25.2208,-2.9558
KAlAs,25.1185,19.7511,-5.3674
ZrNi2Te,37.9765,35.1253,-2.8512
AgMoBr6,14.1187,14.7927,0.674
ZrAlPb,51.3134,47.9226,-3.3908
CoRePb,28.6951,32.831,4.1359
LiTcP3,26.1401,22.2998,-3.8403
ZnCo2Ru,16.0886,13.2771,-2.8114
Y2PaGe3Pt4,49.0862,38.255,-10.8312
Sr(Ga3Ge)2,9.1635,10.0155,0.8519
InSiPt2,53.2033,39.8715,-13.3318
Zn2HgIr,18.7462,16.8462,-1.9001
AcYSn6,30.2775,28.437,-1.8405
Y2Ho2Mg5,11.6649,12.9849,1.3199
Pr2Y5Th,10.3739,12.6305,2.2566
Y3Ta17O47,12.3266,11.5571,-0.7695
NbTePdRuI,53.1733,45.9046,-7.2687
TlOs2Cl,35.4587,37.8249,2.3662
InSi3Ru,19.0734,14.0535,-5.0199
TlOs2Cl,35.7192,37.8249,2.1057
MoSBr,21.2856,17.2611,-4.0245
CsMn2MoBr,50.6874,43.1131,-7.5743
BiSbC2,51.4832,41.3243,-10.1589
RbNbV2O8,9.4313,5.9323,-3.499
RbV2SbO8,9.5662,6.5523,-3.0138
InSiSb,26.8433,23.5347,-3.3087
RbTaV2O8,3.7504,1.4946,-2.2558
K2LiAu2,21.5532,21.5264,-0.0268
Li2TePb,23.5685,23.5657,-0.0028
Ac2LaNdPt4,69.2947,55.6654,-13.6293
CsV2SbO8,11.4215,9.43,-1.9915
Cr4GaCuS8,35.8425,26.5098,-9.3327
LiTaAg,23.2127,23.1823,-0.0303
Tm2Zr2In3,45.1325,42.19,-2.9425
Mn3SiBr,66.1179,52.1378,-13.9801
Ge3IrPb,26.5941,27.2373,0.6431
KTcPd,35.7947,33.2091,-2.5855
Zr2Cd2Rh3,54.0288,44.4205,-9.6082
PuZrZn4,33.2667,32.1672,-1.0995
Sr2Tl2Sn,27.0771,28.8424,1.7653
Sn3RuRh,34.8822,30.3898,-4.4924
ZrZn4Rh,25.984,22.9896,-2.9945
Cs2BiMoBr6,17.9096,18.3679,0.4584
NbTePdRuI,53.1751,45.9046,-7.2705
YHoCrSbO7,14.6525,13.221,-1.4314
K2ZrSc,32.7679,28.2516,-4.5164
TmZrZn4,26.2602,25.079,-1.1813
Ac2NdIrPt,50.4562,48.8761,-1.58
KNi2As,18.8531,15.4165,-3.4365
MoPdRh3,40.9249,29.6929,-11.2319
Ta2SbAu,41.9018,43.3164,1.4146
CaTcIr,49.6539,41.6144,-8.0395
Ba(VCl3)2,29.9125,23.5595,-6.353
CaPr2Nb,36.4438,29.7086,-6.7352
NbTeAuI,58.8219,52.8756,-5.9463
LiLaBe3,14.2413,9.563,-4.6783
CrNiPb2Au,42.9584,41.6198,-1.3386
ThGa4Cu2Ir,20.901,21.4329,0.5319
NbTeAuI,63.4616,52.8756,-10.586
CaThCuSi,27.9881,27.0881,-0.9
LiLa2Be,27.0175,20.374,-6.6435
SbPdBr2,29.2409,27.7019,-1.539
La2TaCd,40.0758,34.6616,-5.4142
Y3(HoEr2)4,26.3893,27.9278,1.5385
YBiP2S,41.9053,37.4124,-4.4929
NaSr(ZnGe)2,11.8705,12.2685,0.398
Ca2Ga4HgPd3,13.2795,12.3823,-0.8972
Tm2Zr2Tl3,58.5846,55.436,-3.1485
Nb3WN,92.5438,76.4644,-16.0794
Ho4ZnAg,25.1708,26.5694,1.3986
YP2SBr,33.3788,28.9932,-4.3855
Ca3YGa4,9.8377,10.1968,0.3591
CsMnTe2,48.1414,42.3722,-5.7691
Nb3PC,100.097,77.3115,-22.7855
In2FeTc,36.3105,31.2223,-5.0882
Na2HfTi2,51.5048,37.6668,-13.838
PmScInRh,26.4439,23.1212,-3.3228
Li2TlTe,22.9203,22.6154,-0.3049
NaCoOs,18.4809,22.9378,4.4569
MoAsPb3,37.3245,38.5882,1.2638
NaTlPd2I,27.0498,26.5122,-0.5376
Th4ZnAg,44.7041,46.0269,1.3228
NiAuI2,25.6342,26.4338,0.7996
NaHf2TlFe,80.6365,60.6935,-19.9431
AcNdPtPb,57.1822,53.2277,-3.9545
Hf2Zr3Pa2,102.5482,84.1866,-18.3616
AcSmTlPt,56.9004,52.887,-4.0134
Na(CoOs)2,17.3173,22.4895,5.1722
Na2CoOs2,23.9864,26.5501,2.5636
ZnBiAu4,41.8802,43.1825,1.3023
Y3Ga,13.0297,15.3077,2.278
Na2Ce2I5Br2,20.2768,19.7285,-0.5482
CaYPS,36.8378,33.2698,-3.5681
NaSrPt,24.6296,18.7377,-5.8919
TcMo3Pb,41.2212,38.9238,-2.2974
Tc3MoPb,72.0782,61.9224,-10.1558
Tb3YEr6,22.5191,25.3683,2.8491
TcMo2Pb,44.7069,42.9899,-1.7171
TcAgMo2,39.1242,36.455,-2.6692
Tc2AgMo,58.4837,50.3838,-8.0999
HfZr2BiN,78.5042,64.0327,-14.4715
CrAsPb,25.9758,25.2884,-0.6874
ScTa3,72.6975,65.9253,-6.7722
NaNpBi,44.0821,45.8244,1.7423
Th4ZnPd,41.6094,44.1823,2.5729
CoMo2As,16.2104,17.3242,1.1138
Zr3(PdRh)2,60.5293,50.9128,-9.6166
NdYAgOs,28.7637,29.0745,0.3108
Li2AuCN,33.2726,29.3085,-3.9641
ZrAlBr2,30.8485,27.3907,-3.4578
ZrAlBr2,30.7577,27.3907,-3.367
LiSbSN2,22.1462,17.8483,-4.2979
ReOs3,29.6348,36.1755,6.5407
Hf3(ZrPa)2,109.1773,87.9621,-21.2151
InFeRu2,30.9453,25.8614,-5.0839
CaZr2Sb,57.5203,50.3409,-7.1793
Sr3(GaN2)2,0.5907,2.8308,2.2401
UGa2Ni,22.7817,25.6063,2.8246
TaCoSe2N,71.7796,61.802,-9.9776
SnOsRu2,24.1174,28.1756,4.0582
YB,66.0245,59.9825,-6.042
Zr2ZnOs2,49.2919,47.6477,-1.6442
GdThCuTc,48.6279,47.4054,-1.2225
ZnAuBr4,14.2605,16.3414,2.081
Rb3PtBr6,16.2556,13.3788,-2.8768
Li2TeW,20.7216,21.3252,0.6035
Ca(TeRh)2,36.9539,30.6736,-6.2803
NbTe3N,54.8294,46.6916,-8.1378
LiAlAg,15.6155,12.6238,-2.9917
Pb2CSe,49.9667,44.1843,-5.7824
ZnPdBr4,11.4506,12.9928,1.5422
ScGaSi,15.546,14.4627,-1.0833
LaYNF2,36.7464,30.6438,-6.1025
CaYGa,11.2007,10.3369,-0.8638
VIn3Bi,49.7757,43.4848,-6.2909
Sm2Y(InAg)2,24.4601,23.5943,-0.8658
AcPmPtBr,47.0455,42.7198,-4.3258
AcSbRu2N,42.8635,39.3125,-3.551
PmZrCdGa,37.3905,35.4924,-1.8981
Pm2HoRu2,32.2693,31.7824,-0.487
BeGaCu3,6.7828,5.914,-0.8688
Ca2Al4I,8.4867,7.9001,-0.5866
YBO,29.7615,25.7319,-4.0296
Na2MnSbTe4,45.4569,41.3871,-4.0698
Na2CuPtO4,18.1198,14.2713,-3.8485
SiRuSe2,35.3372,28.3949,-6.9423
AuSe2I,42.3785,37.6325,-4.746
SiRuSe2,35.5553,28.3949,-7.1604
Ac2Zn4GaGe3,19.1204,20.2675,1.1471
MgCdP2,7.9575,8.6174,0.6598
ReIr,11.6922,23.0611,11.3689
SiPdSe3,30.6805,25.3866,-5.2938
Na3NiAu,25.9905,23.4569,-2.5337
TePb2Br,43.4252,42.3665,-1.0586
Hf2Zr3Tl2,97.7683,79.3256,-18.4427
Ba4ZnCd,4.2888,5.6962,1.4073
ZrTlCd2,47.0445,43.9948,-3.0496
Mn2InSn2,52.4045,44.8997,-7.5048
AcInHgPt,42.8388,38.1663,-4.6725
Cs2BaAlSb2,26.2345,23.0041,-3.2304
CaHfP3,42.3131,31.546,-10.767
AlCoCl2,17.1739,11.218,-5.9559
Na2LiNb,48.9797,39.0639,-9.9158
Zr2TaPb,71.5909,67.2595,-4.3315
ZrTaPb2,60.4414,58.7922,-1.6492
Sn3IrBr,23.3975,24.6822,1.2847
InSiW,25.1113,25.8003,0.6891
Zr2TaPb,71.5704,67.2595,-4.311
Y2TiPt2,47.803,34.7862,-13.0168
YTiPt3,72.2002,51.2224,-20.9779
BaSr2Au,18.1753,20.5416,2.3662
Re2IrRu2,24.4454,29.751,5.3057
Ce4PaZn,29.0913,31.8529,2.7616
Ir5C,47.3343,46.3816,-0.9527
Ta3PbN,22.8591,30.0029,7.1438
AlGaPb,18.0741,20.5578,2.4838
Al(GaPb)2,21.7559,23.2099,1.454
PmZrCd4,33.1251,31.5523,-1.5728
ZrSb2Te,57.506,49.5469,-7.959
Al2Ga2Pb,15.1653,16.6612,1.4958
BaScGa,3.4477,3.65,0.2023
Y2TiGe3Pt4,48.7642,36.0773,-12.6868
ZrSbTe2,56.4261,50.9881,-5.438
GaTePbN2,22.4491,22.3493,-0.0998
YZrOsPt,61.3146,52.9165,-8.3981
AuCl2,18.8691,19.5716,0.7024
AcLaThSn,50.6223,49.7078,-0.9145
ZrSb2Te,57.4785,49.5469,-7.9316
AcPmPt,58.8768,53.0011,-5.8756
AcPmPtI,49.3057,45.3167,-3.989
OsRhBr2,29.0556,26.6788,-2.3768
LaY2ZrPt,54.3055,43.2048,-11.1007
AuCl,6.4482,9.9151,3.4668
Sr(In3Au)4,25.7874,26.5113,0.724
AcSm2Sb,39.4432,40.3093,0.866
Th4BiTe2As,50.6455,51.9244,1.2788
AcSmSb2,43.9398,42.2747,-1.6651
LiAlAg,15.5294,12.6238,-2.9055
Zn6CoAu2,19.3582,18.2211,-1.1371
AcSmYAg,33.8503,34.1551,0.3048
AgBi2Ru,35.8148,36.6846,0.8698
Cs4RbZn,16.8985,16.8823,-0.0162
HfZr4Os,96.3172,80.1033,-16.2139
KSnB3,8.8221,9.2537,0.4316
YZr2Pt,74.5179,61.7648,-12.7531
In2AsIr,23.4437,25.5095,2.0657
Cr2NiRh6,40.0027,29.8631,-10.1396
Mn2NbZnN,77.0941,61.925,-15.1691
Ce4ZnSn,21.1102,22.9303,1.8201
Ni2BiSbP,31.3634,27.9127,-3.4508
ErSc2Al,11.2945,13.5679,2.2734
TlCdRe2,67.501,58.9513,-8.5497
TlCd3Re,54.6156,46.382,-8.2336
LiTiAu2,27.1308,24.4049,-2.7259
KCuC3,42.7156,29.3989,-13.3166
Cr2Rh6W,39.0622,30.1819,-8.8803
Li(TiAu)2,25.7465,19.2647,-6.4818
LiCuAu2,25.1648,26.7558,1.591
Ce2InSb,28.1173,28.7059,0.5887
SmLu2Ru,26.7578,30.512,3.7542
Os2PtBr,47.6951,43.8839,-3.8112
OsPtBr3,36.0822,29.8603,-6.2219
AuBr2,23.8129,24.6736,0.8607
OsPt2Br,59.4872,47.9065,-11.5808
ZnTc3,63.5618,54.0093,-9.5524