Formula,E_hull_DFT (eV/atom),E_hull_ML (eV/atom),Delta (ML - DFT)
SrY2Ru,21.0265,17.1494,-3.8771
MnIn2PbBr6,24.7278,22.6903,-2.0375
AcTbPt4,73.8263,55.9464,-17.8799
NaTl(FeBr3)2,13.223,12.6469,-0.5761
RbNa(FeBr3)2,8.0986,7.4792,-0.6193
SrY2Ru,21.1154,17.1494,-3.966
As2OsBr,18.6462,21.1113,2.4652
NaGa(SnSe3)2,32.1341,26.2342,-5.8999
Cd2AgC,31.2648,25.6233,-5.6415
As2OsBr,18.4346,21.1113,2.6767
TaTcRu,49.1079,49.283,0.1751
NaCr(InBr3)2,15.3787,15.4331,0.0544
Rb2NaCrBr6,11.2217,11.2148,-0.0068
AsRu2Pt,35.7175,28.3554,-7.3621
Ba2PaMnSe6,38.4492,32.8794,-5.5698
Y2Ga4NiIr3,41.1918,38.8888,-2.303
Tl2ZnRe,49.3295,43.654,-5.6756
Ba2NpMnSe6,38.6368,32.7151,-5.9218
Ac2NpMnSe6,50.795,45.3562,-5.4388
PaMn(PN3)2,21.1541,17.9397,-3.2145
UMn(AgSe3)2,51.5803,42.7261,-8.8542
AlInSe,23.4184,21.5582,-1.8602
Tb2TmMnSe6,45.8342,38.9858,-6.8483
Tl3ZnRe,49.662,44.9868,-4.6752
Ac2TmMnSe6,47.4037,41.8842,-5.5194
ZnReGe3,27.3714,23.5392,-3.8322
SnPBr,7.9715,9.9294,1.9579
AlSi2Sb,30.0192,22.9516,-7.0676
Li(ErAl3)4,9.3542,10.6064,1.2522
Dy2SeBr2,23.507,22.9172,-0.5897
ZrAgBr2,33.9506,31.4719,-2.4787
SrMn(AgI3)2,27.3556,25.5333,-1.8223
Ho2MnGePt6,69.5008,51.1304,-18.3704
Pa2AlCrN6,8.1064,11.4139,3.3075
NiPb3,41.1409,43.1403,1.9994
Dy2TaReN6,28.6369,30.7854,2.1485
Ca3TaW,20.017,21.4538,1.4368
Sr2YRu,14.7368,16.3204,1.5836
Sr2YRu,18.9245,16.3204,-2.6041
TlGaSn3,25.0344,25.5551,0.5207
Sr2YRu,19.4439,16.3204,-3.1235
AlInSe2,25.1439,23.399,-1.7449
Nb2CrC,103.9323,86.3518,-17.5805
Pa2MnWN6,26.9072,28.0391,1.1319
Tl2NiAu,36.1196,38.4175,2.2979
NaSr2IrO5,22.0939,19.0779,-3.0159
SmScPbAu,31.9349,34.7858,2.8509
TbAgSb,33.8587,30.035,-3.8237
SmYPbAu,34.0633,37.0342,2.9709
RbBaPa2O7,10.0535,11.9098,1.8563
TbNd4In15,20.6772,21.899,1.2218
Li(NpGa3)4,22.252,23.4775,1.2255
La2PrGd,32.0745,25.1291,-6.9454
MnTl2Si,54.5585,48.3848,-6.1737
TcPPd3,30.3081,28.997,-1.3111
SbOsRh2,40.0793,34.43,-5.6493
In3OsC4,43.7694,34.2765,-9.4929
AcPt4F,71.0323,51.8397,-19.1926
P2IrBr,22.9324,20.2974,-2.6351
VAgSb2,58.3527,45.9665,-12.3862
Ac2Pm3Pt2,53.9358,47.0303,-6.9055
SrCrOs2,29.5256,29.3936,-0.1321
VZn3Cd,35.157,29.4532,-5.7038
TaPPb2,39.084,39.6775,0.5936
Sb(PdPt)2,47.4497,34.8826,-12.5671
SmYZrIn,40.2861,36.548,-3.7382
NaAsPbSe2,48.7795,43.2994,-5.4801
FeTeOs2,41.6699,38.4095,-3.2603
BaLiPmIn,13.1009,14.1852,1.0843
YCuRu2,26.2276,25.0225,-1.2051
Ac3AsPt,58.1469,54.0028,-4.144
Ac2TePt,64.0371,58.5218,-5.5153
MnTcNi2Ag,68.7274,58.9463,-9.7811
YCuRu2,26.2903,25.0225,-1.2678
Dy8SbC4,38.6964,32.731,-5.9654
Ba6IrAu2N,9.5993,11.6663,2.067
NaP2WN6,28.8245,22.8483,-5.9762
PtRhAu2,58.5172,49.0092,-9.508
CaWN3,17.4872,17.9136,0.4264
In2GaBi,25.7531,27.2548,1.5017
Zn2CrSe,19.7975,16.3859,-3.4115
TaAg2Sb,36.4194,32.4908,-3.9286
VNiGe2,36.6453,28.6758,-7.9695
Ca2NdWO6,17.4264,18.521,1.0945
YRu4,19.3718,19.5991,0.2273
YGaIr2,19.98,24.5411,4.561
Ba6AgHg2N,0.59,1.0979,0.5078
Y4GaIr2,21.9524,23.584,1.6316
InRh2Cl,30.6512,26.0406,-4.6106
ZnIrBr2,22.8448,19.7828,-3.0619
LiTaOs2,30.2501,33.9471,3.697
Y5Ru,17.1495,17.2241,0.0746
Ag2Pt2Rh,53.8494,37.6832,-16.1663
VNi2Ge,41.9077,33.5723,-8.3354
Ir2PtPb4,55.7134,52.688,-3.0254
Zn2Ge2Sb,12.9755,12.4704,-0.5051
Sb3OsRh,46.2468,37.2447,-9.0021
Cs2PCl6O,10.5459,9.9758,-0.5701
Be2WSe,27.8667,24.8737,-2.9931
Zr2CuS,57.7917,46.5353,-11.2564
Be2WSe,27.8244,24.8737,-2.9507
Be2WSe,28.234,24.8737,-3.3604
LaOs3,35.6469,35.5393,-0.1076
Be2WSe,28.0403,24.8737,-3.1666
BeWSe2,37.4371,32.3111,-5.126
BeW2Se,34.3391,33.6948,-0.6442
IrRuPb,43.8844,41.2396,-2.6448
Er2SeI2,29.1342,28.2621,-0.8721
NaNp(ReN3)2,59.0059,55.9392,-3.0666
Sm4IrAuBr2,32.7342,29.8559,-2.8782
IrRu2Pb,37.0642,36.4546,-0.6096
BeW2Se,34.6596,33.6948,-0.9648
CuAu,12.6306,15.7891,3.1585
CsSr2Ac,29.0771,30.5547,1.4776
LiTh2Al,36.839,38.2305,1.3915
Li2Er2TmPd5,12.0435,15.298,3.2545
AlRe3Sn,30.3495,32.4798,2.1303
GaFeRu2,28.7897,23.3173,-5.4724
NaZn2Pb,23.2045,22.5538,-0.6507
Sm(ErCu)2,14.7187,18.468,3.7493
Ac2TlInPt6,73.5971,56.7468,-16.8503
TlCu2P,17.707,18.0751,0.3681
TlPtW2,54.7256,50.264,-4.4616
NaSmSnAu,28.9133,29.6829,0.7696
TlMoRh2,41.2761,35.8548,-5.4213
TbErAlAu,25.9417,28.6236,2.682
Y5Ru,18.1713,17.2241,-0.9472
RbNa2TlBr6,15.9989,15.4686,-0.5303
AlHg2Rh,13.2018,10.188,-3.0138
Na2SrHgBr6,12.6404,12.0424,-0.5981
Na2InAuCl6,13.0387,13.1009,0.0621
Sr(InW)2,27.3609,25.9286,-1.4323
NbGaN,42.395,38.9469,-3.4481
AlHgRh2,24.8177,18.8403,-5.9774
AcTa(CoO3)2,18.5636,17.7137,-0.8499
TaCo2PbO6,18.9222,16.5829,-2.3393
In2BiP,25.0126,26.4517,1.4391
BiP3Pt,31.5832,26.2157,-5.3675
CaAcTbDy,31.0146,33.8033,2.7887
Al2NiPO6,3.6446,4.8016,1.157
RbBe3Ir,9.3803,10.5126,1.1323
TmV2,96.2648,78.3745,-17.8903
BiRu2W,51.5889,44.8883,-6.7006
CeY2Sc,14.4821,17.7512,3.2691
TaPtRh,58.1044,46.3312,-11.7732
SrV3Te,90.6926,71.3797,-19.3129
Na2CuPbCl6,12.5596,12.1555,-0.4041
SmAuI,26.5849,30.8995,4.3146
Ti3AuC,7.1348,4.1006,-3.0342
Sm2TlAuO5,9.2788,10.7883,1.5095
PtPb,71.2158,57.5803,-13.6355
In3NiBi,25.1651,25.7151,0.55
Li2SmPbAu2,28.2911,29.5882,1.2972
Sm2Pd2Se,25.6307,26.2487,0.618
Zn3BiW,24.1713,25.2901,1.1188
Yb(GaRu)2,12.7145,14.9893,2.2748
TbSmPtAu,46.0685,40.666,-5.4026
NaCa(InBr3)2,12.6648,12.9047,0.2399
Rb2NaTbBr6,7.0553,8.4974,1.4422
Rb2GeOs,12.1907,13.9543,1.7636
NaLa(TlCl3)2,14.6947,14.392,-0.3027
KNa(ZnCl3)2,3.2808,3.3527,0.0719
LiSm(YAu2)2,29.5448,31.6239,2.0791
Na2PdAuCl6,13.118,13.0377,-0.0803
Th4ZnSb,46.8599,49.9547,3.0948
Ac2Sm2CoAu2,40.1207,41.8811,1.7604
Na2PdPbCl6,13.3708,13.8016,0.4308
Sb2PPb,36.9013,32.691,-4.2103
Mg(PaRh3)4,49.9236,39.9461,-9.9775
LiSm2Ge4Au3,22.3804,23.9364,1.5559
TbDyYHo,24.1747,27.3782,3.2035
AgAsRu2,21.8797,20.4408,-1.4388
TaMo2AsPb,27.6594,29.3223,1.6629
Tl2PbSe2,46.2779,44.2564,-2.0216
Pa(MnAs3)4,34.1573,30.4073,-3.75
ReSbIr3,44.5227,44.362,-0.1607
LiAgAs2,12.8436,12.2267,-0.6169
NaPm(AgCl3)2,12.3531,11.6266,-0.7265
NaAg2PbCl6,12.6597,11.8039,-0.8558
PaMnMoC3,50.8928,42.4113,-8.4816
La2Te2Se,39.7519,31.3901,-8.3618
Na(In3Te4)2,31.8208,29.6515,-2.1693
NaInTe2,28.5901,26.7976,-1.7925
YTcRuW,84.9412,73.9755,-10.9657
LaSmTlAu,43.1602,40.9235,-2.2367
TlPPt2,58.6745,44.5005,-14.174
Na2InTe2,27.0539,24.8972,-2.1566
Rb2Ti2V,27.3825,22.0256,-5.3569
RbTeP2,16.4253,13.7958,-2.6295
PaCr2FeO6,13.2161,12.675,-0.5411
Li3Al,4.0117,4.0787,0.067
Er2ZrIr3,38.8514,39.2776,0.4262
SmPaGeAu,36.8483,40.2974,3.4491
ZrPb,69.1502,62.4604,-6.6898
PmSn2Sb,27.3009,26.3405,-0.9604
DyY3(HoSe2)4,33.7556,30.038,-3.7176
CaHfSe2,81.2005,62.1734,-19.0271
La4OsI2Br,37.31,29.0166,-8.2934
ScTi3Cr,15.5878,15.8474,0.2595
Sc2TiCr,18.177,18.672,0.495
Pr2Nd5Tm,13.3348,16.2078,2.8731
Li2ZrAl,28.4655,22.9581,-5.5074
AcPt2Au,66.4678,55.2194,-11.2484
Ce3(CdAu)4,30.5948,31.6901,1.0953
Na3TcPb,45.0451,39.0609,-5.9842
LiSmTlAu,30.4155,32.7079,2.2925
BaRu3N,29.9997,27.7231,-2.2766
AcBiPt,68.6454,60.9826,-7.6628
Zr2MnSi,77.6754,62.1453,-15.5301
TePt2,68.8314,51.5148,-17.3167
Ac3PtAu,60.3407,57.8441,-2.4966
TcP2Au,30.7792,35.5404,4.7612
NaMg2TcH8,12.0207,10.0785,-1.9422
SmU(TlS2)2,51.5927,45.2162,-6.3765
Sm6GaRu2,15.497,18.1164,2.6194
LiSmPtAu,39.775,34.3494,-5.4256
Dy2GaCoO6,5.4643,7.048,1.5837
TlGe3W,25.5802,26.4131,0.8329
CaNd2Te3,28.6372,28.662,0.0248
K2FeOs,27.4726,22.6661,-4.8066
Na2ZnCd6Hg,16.2532,16.1057,-0.1475
Sc2PaTi,20.775,23.8557,3.0807
YbCuSb,24.2697,24.4164,0.1468
Pu2Si2Bi,45.2677,44.249,-1.0187
TaTlP3,21.3799,21.0742,-0.3058
AgSbPb,42.9923,38.4617,-4.5307
Tl2NiI6,27.0425,28.1501,1.1076
BaPb3,39.2557,40.7444,1.4887
Y3Os,16.3844,16.7144,0.33
Sr2HfSnO6,29.7234,24.5523,-5.1711
LiSm2Gd,20.131,22.922,2.791
Na2AcUS6,45.5852,37.3883,-8.1969
Re2SbP,52.5879,45.9415,-6.6464
Ca(AcSi)2,31.4124,30.6944,-0.718
Tb2Y6ErTh3,30.3441,32.1017,1.7576
Cd3BiBr,22.9403,24.8593,1.919
Na2SrUS6,40.9821,31.8306,-9.1514
NpAg(HgO3)2,15.6791,15.3415,-0.3377
ScCrBr2,24.0761,22.6334,-1.4428
ScCrBr2,18.714,22.6334,3.9194
Pr2PPb,10.6265,14.0748,3.4483
Sr6Tl2Ga,20.9119,21.8469,0.935
Cd2Bi2Br,29.583,30.9401,1.357
AcScPO,72.5803,70.0402,-2.5402
Na2Sr6HgPt,19.4239,16.7647,-2.6592
RbYHg2,12.988,9.9633,-3.0247
Tb2Y2ErTh,23.8688,27.0955,3.2267
Zn2Pb2Se,31.0955,30.313,-0.7825
NaAg2HgBr6,12.8685,11.762,-1.1065
Ag2TeMo,32.8119,27.8648,-4.9471
Ac4SmLu,53.1694,55.5667,2.3973
Sr2Sb2Pd15,20.4596,20.0026,-0.457
CePmGd,26.4627,29.5524,3.0897
NaCa(AgBr3)2,15.1528,13.6911,-1.4616
Na5NCl2,21.5868,18.8276,-2.7592
AcSmLuTh,47.4423,51.0956,3.6533
ReNi2Rh,44.6623,32.7104,-11.9519
Rb2NaAcBr6,10.8231,12.3053,1.4822
Sr2TiPdO5,10.3062,9.3876,-0.9186
Sr2TiTlO5,2.5589,5.171,2.6121
Pr2Nd4Sm3,18.2883,21.4613,3.173
Y2Co3Ge,34.5177,29.4774,-5.0403
BeRe2Ni,33.4247,27.2051,-6.2196
Rb2NaPrBr6,7.3708,7.588,0.2172
TiTlPb2O5,10.6781,14.2031,3.525
TiVAg2O5,14.2756,13.25,-1.0256
NaCd(InHg3)2,8.1059,7.9645,-0.1414
SiNiOs2,26.1211,28.1045,1.9834
Y2CuNi,71.1806,61.352,-9.8286
Zr3Al2Cu3,41.5272,32.8294,-8.6978
Sm2TcAu,47.2846,46.4698,-0.8148
Zn2CdBi,20.719,22.2205,1.5015
InAsW,24.4804,25.8028,1.3225
ThZr(SiIr)2,45.8595,42.0851,-3.7744
BaSb2Te,32.5697,27.6974,-4.8723
InAsW2,27.7909,30.4948,2.7039
InAsW2,28.2105,30.4948,2.2843
Zn2CoCl,11.0744,7.4146,-3.6598
Tl2NiW,39.383,39.7053,0.3223
Li(BeRe)2,11.1685,15.247,4.0785
Zn2GaTe4,27.1607,26.1374,-1.0233
K2NaBiCl6,7.8992,8.8263,0.9271
AcPrPt,43.2856,29.1919,-14.0937
Pm2PrErTl4,34.3117,36.5799,2.2682
Lu2GaAg,26.2585,26.6676,0.4091
Nd2Y3Ho2,21.0859,23.5924,2.5065
MoAsPbSe2,47.997,43.6309,-4.3661
MnTl2Ge,48.6449,47.0735,-1.5715
TaAs2SeBr,35.2558,33.5873,-1.6686
Tb3PmNdSc,18.4967,21.0587,2.562
NaPu(TlCl3)2,16.1616,17.7827,1.6211
IrRuPb2,46.0423,43.8865,-2.1558
TaGeAs2Se,35.0185,33.5528,-1.4657
PmPr6NdHo2,5.3574,6.2301,0.8727
SmTh2Rh5Au,42.6416,37.2658,-5.3758
NaCd(CuI3)2,16.6708,16.8157,0.1449
PmPr6NdDy2,3.0296,5.6927,2.6631
NaCu(AgBr3)2,17.1248,15.4049,-1.7198
TbTmSnAu,30.6199,33.5735,2.9536
NaCu2SbI6,18.9827,18.0432,-0.9394
YVBi2,62.9246,57.5981,-5.3265
Sm5(YHo)2,23.2824,26.801,3.5185
Ta3MnTe,52.265,49.3361,-2.9289
ZnIn2Sb,23.1429,21.6666,-1.4763
ZnIn2Sb,23.1747,21.6666,-1.5081
Zn2InSb2,25.0905,21.7346,-3.356
MnTlGe3,36.9607,33.4229,-3.5378
NiRu3Br,18.7864,18.1263,-0.6601
Y(VBi)2,76.1486,65.6266,-10.522
LuAlI,17.99,19.2087,1.2187
Pm6Pr2SmTm,14.9846,17.9949,3.0102
MgFeBi2,24.6064,27.4343,2.8278
NaTbAu2,35.8876,36.1529,0.2653
In2TcH6,11.0628,10.4679,-0.5949
CdPBr2,11.3558,11.7113,0.3555
CdPC2,32.3273,23.9788,-8.3485
SnGeBi3,39.3124,40.0303,0.7178
HoTmAg4,30.5426,27.6871,-2.8556
Dy(WO3)4,14.0398,15.979,1.9392
Np4HgO12,16.8739,18.3844,1.5104
Pu4HgO12,15.3363,17.5482,2.2119
CdSiP,17.7675,16.8893,-0.8783
LiNd2UAs4,18.862,21.0232,2.1611
Ga2Co2Pt,18.0621,15.4833,-2.5787
PmPr6Nd2Sm,2.4887,5.2299,2.7412
NiOs4Br,32.2734,34.691,2.4175
Sr2CaRhO6,9.2757,9.3489,0.0732
Th2Si2Ge,33.673,33.2208,-0.4522
ZnFe4Se,10.9738,9.595,-1.3788
NaAcPt2,66.4233,51.8064,-14.6169
NaBi(PbBr4)2,27.0755,24.8454,-2.2301
La2ZrSi,53.948,38.2038,-15.7442
Li3TaBe,10.8988,10.9238,0.025
LiBeSe2,24.6106,19.6883,-4.9223
Be2PSe,8.9724,8.8734,-0.099
NaNCl3,17.1104,15.191,-1.9194
TaCu2Au,26.3819,27.2534,0.8715
Li2BePSe4,27.1825,20.7567,-6.4258
Al2VRh,39.9036,33.7308,-6.1728
Rb2HoTlI6,17.6712,19.5533,1.8821
SiRh3N,32.8041,22.8447,-9.9594
Li3ZrBe,21.2617,17.1733,-4.0883
AcThZr2,81.9633,73.948,-8.0152
CaTcSe,69.856,58.1931,-11.6629
Dy5Er3S,30.9751,31.3637,0.3885
RbNa2HgI6,15.9408,15.432,-0.5088
UTa4O12,11.6599,13.2538,1.5939
Tb6PrNd2Ho,18.8032,21.6927,2.8895
Na2CuNiBr6,10.6768,10.3878,-0.289
Mo(WO3)4,17.6035,18.5143,0.9108
Hf4ZnIn,93.0159,67.1104,-25.9055
Mo(OsO3)4,15.381,15.2951,-0.086
Mo4WO12,22.1165,19.9666,-2.1499
Pm2PrNd6Er,17.6827,20.5551,2.8724
Tb2GdAg,28.527,29.5453,1.0183
Na6Mg(SeO4)4,6.7621,4.9039,-1.8581
La4Y3Ho4,32.8853,28.8507,-4.0346
Nd2Y5Ho2,19.4822,21.2705,1.7883
Rb2NaAsI6,22.2555,21.178,-1.0776
ZnPbBr2,27.8964,24.7606,-3.1358
Zr3Cu5,40.9619,34.3247,-6.6372
BaRhI,20.0732,16.754,-3.3192
NaAg2IBr6,17.5518,16.2059,-1.3459
Pr5(YHo)2,8.4141,10.3132,1.899
Sn(POs)2,15.6675,19.8271,4.1596
Cs2NaSbI6,21.9227,21.6795,-0.2432
Tm2BiC,37.3606,38.6089,1.2483
Tb3Sm2Y6In,20.0079,20.8985,0.8906
Ho2PaPb,44.0894,46.7395,2.6501
Cd2TePb,33.323,33.1551,-0.1678
PaAg2Pb,45.8331,44.836,-0.9972
Re2GeS,43.3172,37.3964,-5.9207
Dy2Y2Ho3,23.9319,26.7294,2.7975
UInNi,18.2929,24.5316,6.2387
CaGdPdAu,24.0751,26.6647,2.5895
Ba4SrYCu6(PbO4)4,15.0913,13.5896,-1.5017
NaAc,44.7373,43.9962,-0.7411
Be2TeW,21.9944,22.0142,0.0198
BeGaO3,8.072,9.5229,1.4509
Zr5CuRh4,68.8199,53.3709,-15.449
SmGa4Au,13.418,15.6502,2.2322
Hf2HgB,72.3584,53.6083,-18.7501
B2PdRu2,2.8436,7.8127,4.9692
BeSbCl2,14.6864,11.7191,-2.9672
RbTi3S5,32.4243,23.3625,-9.0618
Be2SbCl,13.7608,11.7878,-1.9729
SiNiAu2,29.0333,28.9838,-0.0495
Be2SbCl,13.4007,11.7878,-1.6129
SmGa5Au,15.974,17.1888,1.2148
Li4AcTh,22.2775,23.829,1.5515
LuAl2Ga,11.812,14.2877,2.4757
Ba2InNiPb6,31.6413,32.2121,0.5708
Nd2Sm2Y2Ho,22.2335,25.9248,3.6913
CeGdNi,23.6388,24.6184,0.9796
BaU(AgO3)2,6.5614,5.9723,-0.5891
Rb2Tl2Sn,22.8515,24.0716,1.2201
Ac3Ge2(BiPt2)2,60.9395,51.4472,-9.4923
Pr(ScSe2)2,20.3005,17.1726,-3.1278
BeCr2Br,21.3878,19.7073,-1.6805
Ba2CrReO6,5.42,6.2015,0.7815
Y3Ho4,22.1336,25.6669,3.5333
Ac2CdSb4Pt3,58.8657,46.4709,-12.3948
BaAc2CrO6,14.2517,15.5512,1.2995
ZnTePt2,52.8303,39.3308,-13.4996
BaTa2Te,29.4018,32.1171,2.7153
LaSi2Pd5,20.7988,18.4021,-2.3967
Co2IrAu,27.0107,30.9465,3.9358
LaTi2Sb,20.6013,16.8433,-3.7581
Bi(WO3)4,15.9893,17.8236,1.8343
SiNiMo,35.6772,29.254,-6.4232
BaNbCoO5,10.9243,10.7857,-0.1385
Gd2ZnGa,18.7635,21.1602,2.3967
NpTlPb2O5,24.0042,25.797,1.7928
PaAg(HgO3)2,9.1146,10.0666,0.952
Ca2IrPd,24.8993,21.9441,-2.9551
MnRuF3,27.9056,23.0948,-4.8107
Ta2SbSe,42.0209,39.2357,-2.7852
AcCd2Pt3,56.6983,43.557,-13.1413
CsBeCu2,14.9549,13.2483,-1.7066
AsRu3Pt,32.6865,26.3949,-6.2916
MgTa3Bi,35.6111,37.5821,1.971
Tl2FeAu,37.5699,38.9703,1.4004
Ac2CdSn4Pt3,49.1877,41.38,-7.8077
AlTc2Mo,56.7102,48.2918,-8.4184
Ta2InCo,46.0346,40.0345,-6.0
Ac2Zn3CuPt4,50.9358,40.0311,-10.9047
Ac2FeGe4Pt3,42.8524,35.2635,-7.5889
Y3Ho8,24.3833,27.6296,3.2463
Zr2TlAu2,62.5129,56.1985,-6.3144
GeAs2Ru,16.7983,14.8945,-1.9038
SmSnAu,30.4465,21.1456,-9.3009
Ca2EuSn,14.4941,16.1028,1.6088
H2AuF6,6.8451,6.7114,-0.1337
H2BrF6,2.9514,3.7146,0.7632
Al2TcMo,35.3736,29.259,-6.1147
BaMn2Te,60.6263,50.2818,-10.3445
GdI,16.4805,20.2467,3.7663
KBaBr,8.9181,8.0478,-0.8704
SmAl3Au,2.6323,7.6937,5.0613
ReTcS4,52.9674,42.4849,-10.4824
Ba2AcThO6,3.189,7.8398,4.6509
MnBeBr2,31.2087,26.4855,-4.7232
Ba2NbAlO6,8.3394,7.0256,-1.3138
Ba2AcUO6,4.8864,7.8438,2.9575
AlTcMo2,41.8553,35.4113,-6.444
PrSm3(Dy3Th)2,30.5811,32.3863,1.8052
Dy4Ga2N,17.417,20.0334,2.6164
NaSb2Au,36.8697,31.4613,-5.4083
AlTcMo2,41.8041,35.4113,-6.3928
Ac2AlTlO6,16.3709,19.3278,2.9569
Sb2(AuF6)3,11.814,10.5453,-1.2687
ZnC3Se,50.3569,35.5248,-14.8321
MnSbTe2,57.8649,48.6745,-9.1904
Mg2HRh6C,36.8295,26.044,-10.7854
Rb2ZnC,19.3112,14.037,-5.2742
Y4GaS2,17.625,15.3689,-2.2561
Pb2Au,47.2313,50.7102,3.4789
Ba2AcPuO6,3.1163,7.9922,4.8759
Ga4Pt6S,56.7531,39.0428,-17.7102
TeAs2Pb,29.0372,29.0239,-0.0133
Sm2TiGa4Au3,24.9826,24.5823,-0.4003
MnSbTe2,57.5335,48.6745,-8.859
Cs(ScPd)2,15.4443,14.1701,-1.2742
Ba2AlTcO6,4.3435,3.7501,-0.5934
MnBe2Br,28.2349,24.7854,-3.4495
Mn2BeBr,53.2876,43.6003,-9.6873
ThCr(FeO3)2,14.3344,12.9206,-1.4138
PaSbPd,37.3007,38.7211,1.4204
Mn2BeBr,53.4689,43.6003,-9.8686
SiH2F6,4.0182,3.1446,-0.8736
K2Tm2Bi2Se,33.7936,33.0713,-0.7223
AlTl2BiO6,9.8069,13.1665,3.3595
TaAg2AsO6,10.7317,9.7399,-0.9918
Te3AsPb,38.7705,36.5702,-2.2003
MnCrCd2,36.9808,32.5226,-4.4582
SrLa2Nd,35.5071,27.4738,-8.0334
Cs2KAlBr6,11.7826,13.1692,1.3866
SmGaAu,21.6984,25.078,3.3796
LiMnAu3,48.6673,45.3281,-3.3392
Ta2InCo,46.2441,40.0345,-6.2096
Cs2InSn,20.2132,21.9105,1.6973
YPaPt,32.6437,33.2381,0.5944
Na2TbCeS4,39.2144,31.448,-7.7664
Sm3(GaAu2)2,30.5669,32.0091,1.4422
SiPbF3,24.5013,21.9598,-2.5414
YLuTlRu,32.8875,31.8073,-1.0802
Ca2CeCoO6,15.253,13.7203,-1.5327
AuI,27.687,31.1496,3.4626
Cs(SmAu)2,29.8671,32.4377,2.5706
CsTeOs2,39.4741,40.4684,0.9943
FeAg2Pb,31.6519,27.6402,-4.0116
Li2AcPtF8,16.4685,13.4005,-3.068
YSc2Se,17.6244,16.9399,-0.6846
Nd3Pb,31.2924,33.7306,2.4382
Ca2ErTaO6,14.8791,15.8361,0.957
FeAgPb2,36.9059,34.9956,-1.9104
Ca2FePbO6,19.7385,17.8965,-1.842
RbPPd2,12.2421,10.7623,-1.4797
AcTbInPt,49.5153,44.6198,-4.8955
InFe2Ni,25.4869,17.8484,-7.6385
Sr6H2Pt,15.6852,13.7387,-1.9465
Ca2FeRhO6,18.9655,15.941,-3.0245
Ca2GaIrO6,22.7706,21.4097,-1.3608
Zn2TeBr,14.9805,16.6007,1.6202
Ta2PbW,41.4234,45.8966,4.4733
Ca2HoOsO6,18.4107,17.2413,-1.1694
CdCo2Au,21.0242,21.9007,0.8764
RbPu(CuO3)2,1.1644,2.3449,1.1805
Cu2RePd4,18.8235,20.5674,1.7439
PaCu2RhO6,12.064,13.0082,0.9443
Zr2Al2Rh,42.7118,34.4373,-8.2744
TaPbW2,42.3209,47.4799,5.1591
BaCa2Tc,26.2734,23.9171,-2.3563
Cs3OsO4,13.4914,16.5462,3.0548
AcInGa2Pt5,60.4849,44.1173,-16.3676
Sm2TcAu,47.2873,46.4698,-0.8175
RbSN2,25.2094,19.9309,-5.2785
Ca2NdPtO6,21.8504,19.0074,-2.843
PrMg2CoH6,3.984,3.3703,-0.6137
Zn2Bi2P,22.9808,24.1184,1.1376
Ac3CdSi2Pt9,69.0944,50.4356,-18.6588
NaAcTePt,54.3286,46.7654,-7.5632
AcSbPt,65.1529,53.9225,-11.2304
SeBr2O,18.6993,17.0311,-1.6681
Ca2InPdO6,23.9337,21.5378,-2.3959
TlCd2Re,62.0383,54.7203,-7.318
ZnCrP,38.3329,32.3327,-6.0002
Ca2ErPdO6,20.8022,19.6538,-1.1484
Tm5Tc,40.9647,41.6717,0.7071
LiSbRu,14.9206,15.4953,0.5747
YGa2Ir,18.5514,21.3606,2.8092
Ta2BeCd,20.6725,24.0277,3.3552
TlCd2Re,62.0255,54.7203,-7.3052
ThPa5,67.1899,71.254,4.0641
SmZrGaAu,44.2948,41.4087,-2.886
Os2PdW,99.0221,82.9959,-16.0262
BaCa2ScRh,15.3791,10.9146,-4.4645
Y3HoIn12,20.6566,20.0834,-0.5732
RbRePd,21.9681,23.2383,1.2701
Zr2Al3Cu,35.7098,30.1647,-5.5451
ZrMnPd,55.804,48.1655,-7.6385
AcSbPt2,71.5433,55.5958,-15.9476
LiSmAu,23.7541,25.7304,1.9762
Zn2FeGe,10.5026,8.5324,-1.9702
NpScTc2,102.6736,91.7974,-10.8762
Ti2P2Rh,4.4928,4.8359,0.3431
Ac2Cd5Pt4,52.4778,42.4046,-10.0732
FeCu2Au,34.0706,30.5136,-3.557
Ca2PaVO6,36.0135,32.2504,-3.763
Ac2SnPt7,76.9294,56.7303,-20.1991
AcEuPt2,66.9682,53.7094,-13.2588
Ac2PtPb,67.1628,62.4543,-4.7085
Ba2Sn2Ru,9.1387,9.0845,-0.0542
CdMoAu2,32.3495,34.4382,2.0886
SmPuAu2,47.4585,50.0813,2.6227
Ti2PRh2,14.1515,11.7143,-2.4372
CaCo(AsO3)2,11.2065,9.8171,-1.3894
CaCr2AsO6,13.2617,11.8758,-1.386
Bi3PRu,37.4276,38.4589,1.0314
LiReHg4,8.8936,9.4013,0.5077
Ac2LaPt,67.0556,57.7345,-9.3211
Zn3CdSe4,28.6911,24.4942,-4.1969
Y2Ga3Ir,10.2068,13.1561,2.9493
ZnCd3Se4,31.6174,27.4463,-4.1711
LaIr3,37.5041,41.381,3.8769
Te2PAu2,36.9266,36.5758,-0.3508
TePAu,31.4405,32.7049,1.2644
Zr2AlCu,45.9266,36.8844,-9.0422
LiHfAu,58.4983,50.9995,-7.4987
CaPr2PtO6,14.5777,9.815,-4.7627
ZnCdSe2,31.0352,26.5282,-4.507
ZnCd4Se,22.3092,21.0817,-1.2275
Tb2FeRhO6,4.0737,5.2476,1.1739
NaSnOsC2,42.7897,34.0473,-8.7423
Ni2RuAu,19.2124,19.2627,0.0503
InTeO2,23.6116,22.6292,-0.9823
NiAs2Ru,22.6159,18.9428,-3.6731
In3TeO,27.0809,25.3587,-1.7221
LiIn(TeO4)2,17.3471,15.1929,-2.1542
BaGe3Te,15.2757,15.1898,-0.0858
Cr2FeWO6,12.6808,11.7667,-0.9141
PtPb3C,62.5384,52.6268,-9.9116
Cr2FeTeO6,12.0168,9.6956,-2.3212
BaGeTe2,22.99,23.2442,0.2541
Ce5DySb4,32.548,30.0525,-2.4955
TbY2ErIr4,31.912,35.4537,3.5417
Ca2PdRh2,19.7015,16.2957,-3.4058
Rb3AlBi2,16.8971,17.1951,0.2979
HgPAu2,24.7801,25.9932,1.2131
AcGa5Pt2Au,36.5222,30.6425,-5.8797
Cs12AsO4,17.2586,17.9535,0.6949
YVSbTe2,55.1201,45.5706,-9.5495
ThSnPt,44.2008,50.3907,6.1899
SmAlHgAu,18.3635,20.7983,2.4348
CaY6RuBr12,31.4333,28.2333,-3.2001
AcTm(SiPt)2,49.538,38.7293,-10.8087
Hf2CoPt,87.6724,63.0022,-24.6701
Tl(PRh)2,30.7485,25.8919,-4.8565
BeSiTe,21.1844,20.1136,-1.0707
LiLa(SmAu2)2,35.7022,35.2488,-0.4535
Sr(Cd2Ag)6,23.2113,20.8711,-2.3402
Y2TeBr,19.3432,20.0756,0.7323
TiCr2Pb,24.5606,25.1573,0.5967
SmAlAu,15.0071,21.358,6.3509
Y3Ga3Os2,19.9552,20.5797,0.6245
LiBe2Ni,3.4031,3.6838,0.2807
CdBi(PbO3)2,12.4558,14.994,2.5381
CdOs(PbO3)2,10.167,13.6977,3.5307
LiCeSb2,23.128,20.8249,-2.3031
TlTcRh,65.3557,57.3487,-8.007
HfNbCr3,63.6869,49.0336,-14.6532
RbPm(CoO3)2,0.0,0.2243,0.2243
SrIr,0.0,2.4124,2.4124
Pm(NdSi)2,14.4447,15.2594,0.8147
CsCaV,50.8466,41.5364,-9.3102
AcAs2ClO6,2.0893,4.0892,2.0
LaPt7,84.4177,56.0779,-28.3399
LiBe2Os,12.4901,13.7441,1.2541
AcSmAu4,45.9453,48.2142,2.2689
NaNi3H5,3.385,1.9902,-1.3948
ZrCuRh2,50.2043,38.8739,-11.3305
LaRe3,34.7905,33.8318,-0.9586
ErCo2GeO6,5.5921,6.477,0.8849
Ca2Ti2Pb,10.8647,14.1826,3.3178
Cs2BaIrO6,8.7407,10.8695,2.1288