Formula,E_hull_DFT (eV/atom),E_hull_ML (eV/atom),Delta (ML - DFT)
NaY2MgCo,28.4127,23.7075,-4.7052
Y2Cu2Pb,39.3333,32.7365,-6.5968
As2OsPb,23.1289,26.8977,3.7688
LiAcPrEr,22.6438,24.9811,2.3372
InSiMo2,16.5563,17.4774,0.9211
Be2SbIr,22.2611,23.0889,0.8277
YCu2Pb,32.8699,29.4783,-3.3916
Y2BiPb2,31.882,34.8747,2.9927
Be2SbIr,22.2976,23.0889,0.7912
BeSbIr2,33.1002,34.1822,1.0821
SrV(AsO4)2,14.2249,11.4264,-2.7986
CdTeIr2,37.6473,39.1968,1.5495
NaYMgGe2,16.1387,12.9284,-3.2103
BeSb3Ir,36.4765,32.5807,-3.8958
Ba4CaV4Cu2F28,17.7361,15.7806,-1.9554
Ca2As3Pb3ClO12,11.123,11.023,-0.1
LiAs2Pb,18.3591,20.0633,1.7042
LiAc2TlPt,49.0376,47.1073,-1.9304
AsOs2Pb,37.4318,39.9608,2.529
SmPAu2,30.2192,33.0027,2.7835
AcTbPt10,81.4656,60.4452,-21.0204
As3OsPb,27.1814,27.5259,0.3444
SrZrCl,50.5806,43.8688,-6.7118
Cs2AsBr6O,13.0688,13.5116,0.4428
Sc2Ag2Pd,21.0584,18.3947,-2.6636
AsOsPb2,39.6737,41.9547,2.2811
Hf6CdFe2,89.1323,62.0623,-27.07
TbCe2NdBi4,39.0916,41.2763,2.1847
YbEu2MoO6,15.5342,16.4429,0.9087
NbTl2I,63.8441,57.022,-6.822
RbTlZn2,15.8636,16.7035,0.8399
ScTl3V,58.2289,52.5837,-5.6452
Tl2CrP,52.6148,49.7835,-2.8313
Sc2InPb,21.5752,22.703,1.1278
In2GaBr2,11.242,11.9369,0.6949
PmErPu,42.1773,44.7124,2.5351
CuSiTe2,23.7746,21.9127,-1.862
CuSiTe3,26.8111,24.3612,-2.4499
TlCo4Rh,21.2505,20.5724,-0.6782
PrNd7Sc2,18.3797,19.5033,1.1236
CaTmMn2O6,59.7004,53.5463,-6.1542
AlIn2Ga,10.0838,12.8681,2.7843
Y6CuBi2,27.3944,27.0409,-0.3535
CuHgP2,4.7763,3.6857,-1.0906
La(AlBi)2,33.2915,31.9207,-1.3709
SiMo2Os,28.5004,24.5642,-3.9362
LiReAs2,15.4077,17.7929,2.3852
Rb2Zn4Bi,12.9657,13.1882,0.2225
CrReRh2,36.6937,31.8902,-4.8035
LaInAs2,22.2785,20.4407,-1.8377
Li2(SmAu)3,22.5294,24.5501,2.0206
SrCu2Te,13.5459,15.2691,1.7232
Co2SiIr,17.4251,18.7723,1.3472
Y2CuBi,29.4714,28.9237,-0.5477
Cu2TcPt2,51.2487,40.6667,-10.582
Ge(Te2P)2,26.5428,25.8188,-0.7241
SmGa5Ru,12.0067,13.1131,1.1064
LiNp2PaSe6,48.8638,43.5922,-5.2715
Tl3MoRu,39.4321,39.4164,-0.0157
As2Br,6.6099,9.7003,3.0904
Pm3ErGa4,16.5994,18.9442,2.3448
TlMo2Ru,27.8526,28.4897,0.6372
PrSmO2,10.8888,12.1546,1.2658
TlMo2Ru,27.8197,28.4897,0.67
HfTaSi2Se,52.4353,39.8134,-12.6219
LiPm2PaS6,44.3577,35.3265,-9.0312
AlVGa,46.5577,38.2629,-8.2948
CaPm(TmHg2)2,10.7477,12.4899,1.7422
Mn2ZnBi2,58.2537,51.1945,-7.0592
CeZnPb,16.0861,21.5683,5.4821
Al2CdPt,28.4941,23.3209,-5.1732
ZrSbAu2,59.153,54.8067,-4.3463
PrNbSi2O7,16.262,12.7746,-3.4874
Cu2Bi2Pb,31.7688,33.8346,2.0657
Mg2ZnH4,5.289,4.9077,-0.3813
Co2SiIr,17.5728,18.7723,1.1995
RbPtI,34.1784,28.6193,-5.5591
MnZn4Ir,27.5119,24.2885,-3.2234
Li2OsAu,22.8575,24.579,1.7215
LiOs2Au,33.2311,36.4091,3.178
YCu2Pb,32.8625,29.4783,-3.3842
LaBe2Pb,26.4344,24.4715,-1.9629
ZrReSb2,57.1349,51.7038,-5.4311
LiRh3Au,40.3998,31.7086,-8.6912
Li2(SmAu2)3,32.1025,33.3491,1.2467
SiMo2Pt,33.5356,28.3079,-5.2277
TlCdTe,37.4648,36.9907,-0.4741
Tl2CdTe,40.632,40.7285,0.0965
VCrRu2,42.4299,37.422,-5.0079
ReTe2PtI,48.5145,42.1446,-6.3698
CuBiPb,38.143,39.7751,1.632
ReTePtI2,44.8492,39.2765,-5.5727
La2BePb,38.829,33.5184,-5.3106
SiRuS2,39.5474,29.697,-9.8504
LiCaLa,10.645,9.2174,-1.4276
SiMo2Pb,24.8922,26.1811,1.2889
BeSbMo2,24.3693,20.114,-4.2553
LiScRe2Au,45.8765,39.8442,-6.0323
La2BePb,39.133,33.5184,-5.6146
LiReAu3,37.4021,38.5929,1.1908
TbNd2SmHo2,22.1046,25.4696,3.365
La2BePb,39.0623,33.5184,-5.5438
LiRe2Au,32.8359,35.8554,3.0195
Y4Pb5,34.9821,36.8777,1.8956
Y5Pb4,30.8198,32.5926,1.7728
AcCe2Pt9,75.7423,57.4151,-18.3272
Cs2Sm2TeO6,22.0102,17.248,-4.7622
AlInGa,10.5347,12.0218,1.4871
SiMo2Pb,24.8722,26.1811,1.3089
ReTe2Pt,53.9511,47.9667,-5.9844
ReTePt2,65.6781,54.2675,-11.4106
Tc2O5F4,0.0,0.1361,0.1361
ReTePt3,71.264,55.2129,-16.0511
Y2Cu2Pb,34.2993,32.7365,-1.5628
YBiPb2,43.0923,44.6768,1.5845
BeTcN,53.5481,43.3039,-10.2442
Re3PtI,49.0754,44.8734,-4.202
Y2Al4ZnAu3,30.4057,27.346,-3.0597
YCuPb,36.2014,32.9174,-3.284
Tb2LuGa,23.5527,25.9003,2.3476
ScHgH5,0.9187,1.7293,0.8106
CrFe2Os,33.2439,25.965,-7.279
ZrTcOF2,40.7621,34.0842,-6.6779
BaMnP2,30.6028,23.8239,-6.7789
CuAsBr,13.749,12.9458,-0.8032
TaNbSe2,68.5022,58.7047,-9.7975
Tb(Cl3F)2,6.4556,8.1767,1.7211
LaIr3Ru,43.7682,39.4314,-4.3368
SiMo2Pt,33.7307,28.3079,-5.4229
Ce(TaSe3)2,42.1944,36.6245,-5.5699
Cr2FePb,29.3119,26.0334,-3.2786
NiAs2Br,19.2807,16.1013,-3.1794
CrFeOs2,34.4086,33.4293,-0.9793
LiLa2InOs,33.9611,28.4562,-5.505
CrFe2Pb,29.496,24.8566,-4.6395
CrFe2Os,33.2638,25.965,-7.2988
Th4Al12Pd,18.2447,19.8303,1.5856
AcNdPt,41.7143,46.9497,5.2354
Pr2ZnSi3Pt4,39.2871,27.8189,-11.4682
ReSiMo2,24.369,24.0481,-0.3209
Re3Pb,43.7457,49.6936,5.9479
CePrGe2,9.0369,12.0557,3.0187
Sr2TcRu,35.0336,32.0548,-2.9788
AcNdPt10,81.2914,60.2735,-21.0179
Ac3Nd3Pt2,49.9062,45.2742,-4.632
ReSiMo2,24.4845,24.0481,-0.4364
BeSbMo2,24.2387,20.114,-4.1247
CuAs2CBr,23.6367,18.4722,-5.1644
Mn2SbSe,72.8602,58.7635,-14.0967
Ta2CrW,55.8828,49.4309,-6.452
SiMo2Rh,23.4769,21.6972,-1.7797
Re2NiOs,51.6582,44.0106,-7.6476
SiMo2Ru,18.479,18.3344,-0.1446
LaTaSi2O,36.9535,31.7282,-5.2252
K3BiO3,0.0,1.2686,1.2686
Pm2SmAu,30.2272,32.9378,2.7106
NaAcN,29.788,30.3991,0.6112
CePr5Bi4,21.3955,23.1471,1.7516
CoIrBr,28.9893,26.6554,-2.334
YCuBi,41.9078,37.186,-4.7218
SiMo2Ru,18.5206,18.3344,-0.1862
Re2TcNi2,58.9289,41.5289,-17.4
BaSb2Mo,22.5026,20.0142,-2.4884
NaScTcO5,38.2406,33.3796,-4.861
SiMo2Ru,18.6892,18.3344,-0.3548
LiSmAsAu,19.8835,22.1094,2.2259
K3PmNb2O9,21.2758,17.5889,-3.6869
CaSmAlAu,19.6698,21.9788,2.309
NaCa2ZnPt,27.1879,20.6489,-6.539
AlInGa4,9.5657,10.6048,1.0391
SmMgAu2,29.8585,31.9422,2.0837
PmSmAsAu,25.907,28.7133,2.8063
Tb3(Tm3Sc)2,24.9324,28.2253,3.2929
Ac2NdPt9,79.066,60.7046,-18.3614
SmTlAu2,38.1473,40.7549,2.6076
CaAc2Ga3Ir4,35.678,35.5904,-0.0876
HPb2IO6,19.6399,18.968,-0.6719
La4Te2AsIr,41.6852,35.3501,-6.3351
PaH(PbO3)2,16.0921,17.5538,1.4616
Nd3(Y3Sc)2,19.2426,19.3636,0.1211
Ac2NpGe3Ir4,39.4254,41.6656,2.2402
Sm2ScSn2,19.5323,19.3525,-0.1798
LaPr3As4,8.1736,8.6361,0.4625
PrSmLu2,21.92,24.8782,2.9582
Pm(SmSc)2,18.8357,19.4075,0.5718
SrYPb,29.2901,29.1704,-0.1197
SrYPb2,34.871,35.2286,0.3575
LiTb2Lu,21.9731,24.6121,2.6389
MgNiOs,4.8976,14.9179,10.0203
LiHfAu,63.588,50.4697,-13.1183
Tb4Al12Ru,8.8183,10.4314,1.6131
Zn2Ga2Te,14.9085,15.3197,0.4112
CePu2F6,21.7835,22.8992,1.1157
SrTi2Fe,18.1557,17.6361,-0.5196
SrYPb,29.3186,29.1704,-0.1482
Sm5DyPb6,38.5156,40.0783,1.5627
Ba4SiPb,11.6718,11.5088,-0.163
Bi2SbHO6,15.7508,17.0835,1.3327
CdPbW2,38.2707,40.9574,2.6866
Sc4Al12Pd,5.7517,5.7082,-0.0434
SrYPb,29.4284,29.1704,-0.2579
LiTcAs2,28.1491,25.7548,-2.3942
SiMoOs,28.2708,26.5071,-1.7636
SiMoOs,28.7375,26.5071,-2.2304
Sm4Al12Hg,7.6114,9.0077,1.3963
CaGa2Cu3(RuO6)2,10.6519,10.2636,-0.3883
CaLaTaFeO6,17.3014,16.5267,-0.7746
NaOs,3.7444,7.854,4.1097
Sr2TlSn,21.0988,23.2283,2.1295
BaVAg,41.6124,32.0722,-9.5402
SrY2Pb,25.4521,25.4688,0.0168
TaSiMo2,54.4704,45.9218,-8.5486
Hf2TiV,105.5491,78.4116,-27.1374
LiTaAu,22.406,27.2661,4.8601
Na2Sn4GeAu3,28.1458,28.0746,-0.0713
HfTi2V,62.8978,50.2035,-12.6943
POs2C,29.3266,28.2304,-1.0963
SrYPb,29.9378,29.1704,-0.7674
RbZr2Tl,63.1977,55.4035,-7.7941
Ta2RhSe,42.6393,38.9628,-3.6766
AgIr4Pt,49.7562,46.3038,-3.4524
NaNd2As3Pt4,45.4364,35.6315,-9.8049
ErLu(B2Ru)2,4.1383,8.4161,4.2778
SrFeSe2,33.0138,27.879,-5.1348
Ba2Zn2PtO6,18.991,13.9378,-5.0532
RbCr(CuP)2,25.2136,22.4992,-2.7144
Mn2ZnMoC,56.5243,45.4212,-11.103
Ac6Ir3Se2,54.7597,55.2174,0.4577
Ca2YB,49.1168,43.6679,-5.4489
CdReW2,63.7733,56.9581,-6.8152
PmSmGeAu,25.859,28.7252,2.8662
SmEr(GaRh)2,27.4116,24.354,-3.0576
GdBeCu3,13.2858,12.9808,-0.3049
Rb2FeIrCl6,7.7993,7.4316,-0.3676
Sm3Fe3Ge2Au,15.3278,17.1794,1.8517
Ta3MnP,44.8975,41.7843,-3.1131
CaYB3,42.779,36.3805,-6.3985
TaP2W,71.6109,62.2963,-9.3147
ZrRuC2,61.6349,50.1631,-11.4719
TaCdPb2,40.7899,42.5688,1.7789
TaCd2Ge,21.8917,23.8067,1.915
GeTe3Os,36.2832,34.8523,-1.4309
SmTmGeAu,27.3272,30.3882,3.061
La2CoBr,35.7072,26.4876,-9.2196
La2Sm3Au2,38.5272,35.6645,-2.8626
TaCr2CdO6,17.5238,14.5365,-2.9872
SmBe2AlAu5,34.7847,33.7742,-1.0105
LiTaSi,24.3078,24.676,0.3682
Pr5YBi4,21.7866,22.7006,0.914
KSm2Er,23.0578,24.9512,1.8934
LiCaTaSi,19.6631,15.7511,-3.912
CrGe2Te,18.2107,17.619,-0.5917
TlCdW2,37.6809,40.5066,2.8258
ZrZnSb2,48.6045,41.8941,-6.7104
TlSbOs,47.0205,46.5707,-0.4498
InNiTe2,27.9639,27.4649,-0.4991
Np2Os,48.5066,54.3547,5.8481
Cd2MoRu,19.1914,20.1988,1.0074
NaHoGeAu,26.8822,27.8784,0.9963
Na2In,22.979,20.6247,-2.3544
Zr2TlTc2,78.6889,68.7139,-9.975
NaGaAsSe3,36.9546,31.6031,-5.3516
LiAs2W,16.6724,17.0023,0.3299
NaGaAsSe2,40.3407,33.8548,-6.4859
Te4AsAu,37.6395,36.4912,-1.1483
GaSb2Te,35.3267,31.6905,-3.6362
Mn2InCu,56.6252,47.4623,-9.1628
SmGa2CuAu4,30.1466,31.0175,0.8708
LiAs2W,16.6149,17.0023,0.3875
CdWAu2,38.4603,40.4939,2.0335
MnIn2Cu,36.6234,32.6622,-3.9612
ErMoN3,8.6181,11.2025,2.5844
TlSiMo2,24.2671,25.2289,0.9617
ZrPbW,63.7493,61.2761,-2.4732
TlSiMo2,24.6428,25.2289,0.5861
Zr2AsW,61.9524,56.0374,-5.9149
TaAlTeSe2,35.6283,31.5577,-4.0706
LiZrAs2,29.1365,26.831,-2.3055
TlNiP,26.8552,26.6705,-0.1847
ErMoN2,10.7237,15.3848,4.6611
Sm2GeAu3,32.9714,35.0564,2.085
ZrAsW2,47.2747,45.9036,-1.3711
Ac3Zn2InPt9,68.4929,53.2392,-15.2537
ZrAsW2,47.2393,45.9036,-1.3356
RbTlC,34.2182,29.3084,-4.9098
CsInGa2,15.4395,16.6218,1.1823
Ac2InSn3Pt4,56.0308,46.7275,-9.3033
Sm3P2Pt9Au,61.6079,46.4626,-15.1453
Sr5Br,14.1401,14.5429,0.4028
AcInPt,41.4298,42.0474,0.6177
Cs3GaP2,0.0,0.0,0.0
CsInGa2,15.2492,16.6218,1.3726
CaTiNi(PO4)3,11.9213,11.4055,-0.5158
SbO2,13.379,15.6472,2.2681
MnSi2Se,44.6362,34.6482,-9.988
NaCdAsRh,21.4482,19.4167,-2.0315
ScAlSb2,26.1114,22.6176,-3.4938
TaAgAu2,40.7073,41.1078,0.4005
TaMnSi2,41.4608,35.7055,-5.7553
SrCa4Cr,14.9917,12.4107,-2.5809
MnBi3Rh,63.0756,56.2651,-6.8105
ThTiP2,19.2795,22.5979,3.3183
MnBiRh2,63.0327,51.9789,-11.0538
ZrSc3I,27.769,25.6355,-2.1335
Y(PbO)2,39.1399,37.2174,-1.9226
MgSn2F6,9.1053,8.2945,-0.8109
SnO2,51.3456,44.4288,-6.9168
Sm6Ir2AuBr3,34.8819,31.5905,-3.2915
Li2ScTl2,18.807,20.324,1.517
Mn2TlV,94.9113,78.0104,-16.9009
CsTaN,13.773,17.354,3.581
Sm2GeAu,25.9141,28.9974,3.0833
LiAsAu2,26.0994,27.514,1.4146
CdIr2W,36.143,39.9616,3.8186
Mn2TlPb,76.0394,66.5042,-9.5352
Rh2PbCl,38.9264,32.3914,-6.5349
SiMoAu,25.9731,27.005,1.0318
CoReBr,28.7218,26.2068,-2.515
Rb(TcB)2,32.6849,29.7599,-2.9251
Cu2MoOs,29.6227,26.8716,-2.7511
HfZn2B,40.9248,30.4117,-10.5131
LiAcGe2Pt,33.8112,30.2915,-3.5198
Mg2InRu,11.0492,12.2925,1.2432
AcInPtAu,54.5312,49.7619,-4.7693
AlCBr2,20.3248,15.8157,-4.5091
EuPb2,44.1654,45.7889,1.6235
CuMoOs2,38.3637,34.9419,-3.4217
SiNiP,17.2229,14.8438,-2.3792
ScIn2Ag,17.4303,15.8206,-1.6097
CuMoOs2,38.4344,34.9419,-3.4924
FeSbRu2,37.0848,29.4005,-7.6843
Tb2GaC,24.525,25.0359,0.5108
SrC3S,54.1465,37.4712,-16.6753
NaZnCdPd,17.1256,17.3316,0.2061
NiCSe2,36.6787,27.6819,-8.9968
Fe(CuNi)2,17.7052,15.4636,-2.2415
CoRe2Br,30.9971,31.0729,0.0758
Ba2Y2Ir,48.5556,42.4618,-6.0938
Mn2ZnF6,21.3275,19.0651,-2.2624
AcZnCdPt,44.7621,39.9045,-4.8576
CaLaSc2Rh,28.4506,18.8318,-9.6188
Tb7CeTm12,29.1958,30.1297,0.9339
CoRe2Br,31.4397,31.0729,-0.3668
Sc2GaFe2Rh5,35.4159,27.7815,-7.6343
TiOsI,1.8536,7.1301,5.2765
U2PIr,52.6436,52.5439,-0.0997
CoTcRh2,49.5575,40.1754,-9.3821
TlCrBr3,29.1317,27.1075,-2.0242
Sm3Al3Ge2Au,24.8284,23.3061,-1.5223
Y3Bi,23.708,26.0738,2.3658
Tl2CrBr,44.3936,41.9468,-2.4467
LiAsBr2,17.5138,16.4356,-1.0782
CdPb2W,41.3172,43.3476,2.0304
Sr(MgPd)3,7.0373,8.5981,1.5608
ZrTa3S,55.1891,50.1498,-5.0393
Tb6Ga2C,21.2801,20.7656,-0.5145
TiTe2P,18.8592,19.0051,0.1458
VTeP2Cl,38.7195,31.3906,-7.3289
NaZrAs3,30.4795,26.8708,-3.6087
ZrAg2Mo,44.3294,38.6947,-5.6348
CdPtW,49.1706,43.1321,-6.0384
CoRe2Br,31.2481,31.0729,-0.1752
LiP2Ir,18.7954,17.7322,-1.0632
SmSiAu,12.8116,16.6324,3.8208
CaAcTh,45.342,48.0964,2.7544
Ba2LiSbS,16.4996,13.2194,-3.2801
SmPu2(SnAu)2,43.1324,45.0691,1.9367
TiOsPt3,64.2767,49.2018,-15.075
Y2BiPb,33.2054,35.4361,2.2307
Ba2SiMo,9.7116,7.7934,-1.9182
ErPaGaRh,38.1124,37.7323,-0.3801
AlCoCl2,16.55,11.218,-5.3319
AlOsRu2,19.184,23.0874,3.9034
AcErGaRh,37.3563,36.1663,-1.19
Y2Ga2PdAu,18.4775,18.4194,-0.0581
Ga2PRuS,26.8912,21.0987,-5.7924
Y8GaPt24,67.776,48.9128,-18.8632
GaIrPb,29.5233,32.8692,3.3458
Lu2InTc,44.841,43.0724,-1.7686
In2MoF6,5.9833,7.4875,1.5042
Sm4AlGa12,11.4933,12.4969,1.0036
Pm4AlGa12,11.4353,12.5318,1.0965
Na(CoI)2,13.6073,14.0729,0.4656
Ce4AlRh12,40.0184,30.1031,-9.9154
Hf2ScRu,76.9056,58.0898,-18.8158
CaAcTbTm,31.828,34.3232,2.4952
Y3GaB,47.4699,40.9514,-6.5185
AcAlZnPt2,49.8869,41.1381,-8.7488
Pm5TlCd4,24.8232,26.7615,1.9383
Sm2Be4Ge3Au,12.0648,13.7311,1.6663
Ca2Mn2V3AgO12,35.5481,28.945,-6.6031
HfTe3I,59.803,48.0146,-11.7884
Ti3PBr,6.6805,8.0915,1.411
CaTb2Tm,22.29,25.0915,2.8014
Tm4Al12Re,11.2793,12.6873,1.408
Tm4Al12Zn,9.4176,10.6324,1.2148
YTm(FeSi)4,23.7476,19.927,-3.8206
Al(Zn3Ag)4,13.3011,12.0819,-1.2192
Rb2RePt,30.3404,26.1241,-4.2162
Cs2Tl2Pd,31.2936,34.6171,3.3236
PrTiIn,1.2828,4.7915,3.5086
TePtW2,52.7574,48.2912,-4.4661
Mn2AlMo,59.3472,48.8274,-10.5199
NaPr2Ru,35.4901,32.7924,-2.6976
Ta10Si2MoSe8,35.1358,31.8094,-3.3264
CrGa2Cu,5.576,6.3728,0.7968
CeAl4Tc,17.9985,16.1129,-1.8857
EuRe6,39.2775,42.4311,3.1536
Cd2SiMo,17.4533,17.4664,0.0131
CoRuBr,20.1159,18.0509,-2.065
UCd2P,27.4848,30.2974,2.8126
Y3(Si3Pt2)2,43.6078,31.8949,-11.7129
Rb2TlIn,18.8417,18.878,0.0363
SrCo2W,19.3131,16.9575,-2.3556
AcPdPtO6,18.3918,17.0102,-1.3816
CeErGaRh,27.3475,26.4945,-0.853
Sr2TaRu,23.3745,25.1498,1.7752
KSn2S,27.8473,24.4806,-3.3667
CsHf3I,98.0336,70.6333,-27.4003
Be2HgMo,4.7167,4.389,-0.3278
Ta2PbF,41.4778,40.2654,-1.2124
AcCrGe2Pt5,59.4686,45.6699,-13.7987
Sr2TaRu,28.1557,25.1498,-3.0059
BaY3Ir,31.7779,29.7764,-2.0015
YAlIn2Ir,32.9395,29.8779,-3.0615
Zn4ReRu,22.1291,19.1043,-3.0248
LuInRu2,14.6446,19.7396,5.0951
Re2Ir2Pd,27.5906,34.4392,6.8486
ReAg2Ir,32.3784,33.8272,1.4488
BaYIr2,49.9291,48.4492,-1.4799
Sr7YZr2,31.6677,28.8441,-2.8236
BeHgMo2,13.0688,10.9001,-2.1687
ZrTaAs2,38.5533,37.2189,-1.3344
FeCu2GeSe4,36.1012,29.2533,-6.8479
SiHgMo,10.4558,10.6166,0.1608
Re3WI,39.5004,41.5933,2.0929
LiY2(TmSe2)3,32.3987,28.3784,-4.0203
SmHfRhAu,65.7195,53.4096,-12.3098
LaAlTl2,38.9539,36.7583,-2.1956
CoOs2W,96.0602,81.7922,-14.268
Re2SbW,41.3423,44.025,2.6827
Y4FeB14,34.5595,29.4878,-5.0717
ZrTaAs2,31.4154,37.2189,5.8035
Mg(BC)2,35.3397,27.7605,-7.5791
LaYMgIn,23.1129,20.2726,-2.8402
AcLaSmAu,47.0848,45.4495,-1.6353
NaGaPb2,34.5081,34.721,0.2129
GdY2Tl,26.886,29.5423,2.6563
CoNi2W,34.7109,30.1404,-4.5705
Na3CrMo,22.0712,19.5046,-2.5665
SiHg2Mo,7.9788,7.82,-0.1588
NbGeN,26.1918,26.4271,0.2353
ErGa6Rh,15.6977,15.1847,-0.513
NaYMgIn,16.5684,15.7764,-0.792
HoErGaRh,28.0819,27.3935,-0.6883
LiAsIr,18.1709,21.1028,2.932
Er2GaRh,28.3396,27.6548,-0.6849
La2Dy(YTe2)3,34.0224,31.0551,-2.9673
Ac3Al2(SiPt2)2,59.7479,49.2862,-10.4617
Tb2Pr8Er,4.1863,5.5649,1.3786
TlCoRu,19.4556,22.4035,2.9478
SrNb2Cl,77.9903,63.7182,-14.2721
Na(NbNi)2,57.7686,49.2331,-8.5355
CrCoRh,21.9402,18.184,-3.7562
Co2CuOs,31.076,28.5069,-2.569
Lu6ZnSb2,32.6545,32.6183,-0.0362
Hf2CrTe,85.2151,62.8216,-22.3935
CrCoRh2,28.7356,22.6967,-6.039
Nd2AlSi3Ni4,15.4448,14.4608,-0.984
TiNbTe3,54.2881,48.3726,-5.9155
Ca4MnW,27.6522,25.1399,-2.5123
TbPr2Sn3Pt4,42.8221,33.7002,-9.1219
InSiMo,16.9172,17.0456,0.1284
Tb11Pr4Y9,17.1483,18.1965,1.0481
NaPrAs,4.9756,7.6365,2.6609
Pr6DyYEr2,4.2883,5.275,0.9867
Y2MnCrAu,53.2669,45.3115,-7.9555
In2SiMo,17.7281,17.8653,0.1372
Dy3YEr3,26.5686,28.2695,1.7009
YSiGeIr2,38.7953,36.1827,-2.6126
BeVCu3,34.8323,26.9038,-7.9285
In2GaBr,14.7839,15.5733,0.7894
InCoMo3,15.3393,17.8955,2.5562
Be3ReSn,16.6586,15.323,-1.3356
In2GaBr,12.1274,15.5733,3.4458
CoTcW2,46.0541,44.4253,-1.6288
In2Ga2Br,10.7972,12.2447,1.4475
BaSi2Pb,20.9642,18.9512,-2.013
CoRe2Hg,22.0721,25.1444,3.0723
TlFeRu2,39.017,33.061,-5.9559
TlSbOs2,45.661,47.1649,1.5038
ReRhS2,50.9582,40.9275,-10.0307
In2SiMo,17.7882,17.8653,0.0771
Co2CuTc,43.9437,35.916,-8.0277
Ca2ReAg,20.9785,20.8502,-0.1283
LiP2Br,14.9076,14.4201,-0.4875
TcBSb3,46.7544,38.8281,-7.9263
NaAsIrW2,34.5277,34.4718,-0.0559
HfTaS2,72.7845,55.9228,-16.8617
HfTaS3,70.0841,51.5206,-18.5635
Zr3TlSi,73.3872,62.7964,-10.5908
Sm4Ga3Au,20.95,22.744,1.794
YScAsBr2,19.907,16.3686,-3.5385
Li2Y2TiS6,38.6932,27.8552,-10.8381
CeSi2Pt5,61.8847,45.4174,-16.4673
Cr3CoTc,27.29,22.35,-4.9399
Cd2TeOs,30.9051,31.4511,0.5461
MnZn3Ir,36.9208,30.6165,-6.3043
Ac2InPtAu6,51.9585,50.8982,-1.0603
Re3GeS,50.3218,43.7459,-6.5759
Na3GdBr6,15.5784,16.0797,0.5012
CoReOs,29.8387,35.1359,5.2972
Sm3Al3Si2Au,26.2212,24.8894,-1.3318
Li2YTi,18.7882,14.4402,-4.348
CaLaLuTh,39.2691,38.1588,-1.1102
In2SiMo,17.7466,17.8653,0.1186
CaIrI,28.9611,24.2188,-4.7422
NiAg2F6,12.9485,11.9752,-0.9733
Sm(Ga2Au)2,17.76,19.8219,2.0619
BaTaW2,29.7742,33.6482,3.874
NaBeZnAu3,30.0147,28.3088,-1.706
BaTaW2,29.3854,33.6482,4.2628
HfRe2S,70.6215,58.5876,-12.0338
ReSe2S,49.121,41.1154,-8.0056
SiIr3Br,32.5369,32.3788,-0.1582
BaTa2W,28.7267,32.0679,3.3412
KAg3Pt,40.6364,30.3592,-10.2772
Os3RuPt,48.5962,45.1292,-3.467
NaCaNd,18.249,18.4336,0.1846
BaRuW,31.9057,27.6756,-4.2301
Ba2TaW,20.3186,22.5548,2.2362
K2AcCuBr6,12.673,13.8725,1.1996
BaRuW2,34.4522,32.2836,-2.1687
ReOs3S,47.0262,45.3871,-1.6391
SiMoIr2,31.8928,31.0605,-0.8323
Ba2RuW,24.9013,21.2997,-3.6016
HgPd2F6,5.6035,6.3159,0.7124
Sm6HgAu2,26.8697,28.4394,1.5697
CaLaTm4,30.1082,29.2463,-0.8618
Ca6Au2SeN,22.3611,20.4114,-1.9497
YSc2Br,9.5265,10.8178,1.2913
Sm2Si2Au3,31.0091,30.6023,-0.4067
Ba6Cd2HgN,1.5509,2.6315,1.0807
ScTaMo2,72.1004,63.1476,-8.9528
ReTeW,40.8078,43.4752,2.6674
PmSmMnAu,48.926,46.1122,-2.8137
ScTaMo,91.4013,77.1714,-14.2299
Li4Y3TiS8,34.0624,24.7215,-9.3409
Mn3CdRu,67.7141,55.7937,-11.9204
NaLa2TlFe,42.1881,34.5312,-7.6569
LiAsOs,17.4332,20.552,3.1188
YSc2Br,9.4841,10.8178,1.3337
RbReSb2,28.0926,26.3273,-1.7653
ReTeW2I,38.2866,39.0182,0.7315
Na2BiAs3Pd4,20.1529,20.3249,0.172
ReTeWI,36.2357,37.6981,1.4624
ReTeW2,40.4131,43.3453,2.9322
Li2CoRe,12.5972,14.8152,2.2179
Er2Ga4Pd3Rh,22.8966,20.6955,-2.2011
TaVSe6,62.3424,49.0733,-13.269
CrGaI2N,21.022,19.0715,-1.9505
Cs3InNi,20.5117,21.0293,0.5176
RbTlZn3,15.9439,15.7512,-0.1927
Y2SnSe2,30.57,24.0737,-6.4963
Er3GaRh,23.162,23.2512,0.0893
CoRe2Ir,32.447,39.2242,6.7772
Hf2Zr6Fe,97.4645,77.8874,-19.5772
SrLiNb,52.8076,41.5373,-11.2702
ReSi2Hg,18.3355,16.1794,-2.1561
PI,11.404,8.1962,-3.2078
YScBr2,11.8262,11.1287,-0.6975
TaSiAs2,28.3884,26.8404,-1.548
TlInRu2,26.0949,28.8426,2.7477
Ta2SiAs,34.6613,35.1749,0.5136
Zn6XeO6,29.4052,19.9769,-9.4283
Sc(AlAu)3,19.018,20.1991,1.1811
NaUGa4,21.1542,22.0356,0.8814
Ca2POs,21.8975,24.0716,2.1741
Co2MoPb,16.8041,18.7976,1.9935
Tm2Zr2Sc,46.2871,41.6163,-4.6708
TaInTe2,35.0303,36.4981,1.4678
MnNbSi,76.422,60.8951,-15.5268
GdP,0.0,28.0201,28.0201
Sm3TmBi4,39.6363,41.7318,2.0956
Zr6Cd2Fe,69.7046,59.9334,-9.7712
SrLiNb,48.2687,41.5373,-6.7313
LiY2TiO,34.9121,27.5376,-7.3745
LiEr2Ga2Rh5,25.4171,20.6355,-4.7816
Pr2U(FeN3)2,12.9939,13.1096,0.1158
YSc2Br,9.6253,10.8178,1.1925
Ac2BeSnPt6,69.3341,53.5548,-15.7793
Na2PtPbC,51.8588,40.3467,-11.5121
Rb2RePd,13.0054,15.0849,2.0795
LiSc2V,35.4086,29.1443,-6.2644
CaAlMo2,19.8886,16.0056,-3.8829
Re3BiS,49.7896,47.3313,-2.4583
ScNb2Au,77.0861,67.3518,-9.7343
Pu6Si2H,39.9313,39.9209,-0.0103
YScBr,11.3774,12.1894,0.8121
CaAl2Mo,11.8633,10.7346,-1.1287
YScBr,11.9327,12.1894,0.2567
Rb2SnPdBr6,11.3413,10.511,-0.8303
NaAcI4,28.7662,29.6697,0.9035
Sm2MgC,23.0088,23.2626,0.2538
LiAsPb2,28.8795,30.2068,1.3273
Y3Si4,33.0021,27.2692,-5.7329
Mn2Cd2Br,50.1717,42.3278,-7.8438
CrTe2P,48.0521,43.6131,-4.439
NaTh2PaSb4,49.7981,47.2132,-2.5849
AcCe2Th,45.1998,48.1395,2.9398
TlAsIr2,37.5958,39.7821,2.1863
Ca2TaSe,44.5601,38.448,-6.1121
Al2CoCl,16.9342,11.3418,-5.5924
SiMoOs2,31.7826,32.9297,1.1471
NaTe,23.9301,22.6134,-1.3167
Al3GaC,17.3187,13.7103,-3.6084
NaLiInTe3,25.623,23.3527,-2.2703
Tl(In3Ga)2,20.779,22.0415,1.2625
Sr2Ca7Y,11.0737,10.0495,-1.0242
Al2SbPd,13.1655,13.8208,0.6552
SiMoOs2,31.7782,32.9297,1.1515
ZrVRu3,55.5506,48.096,-7.4547
Er2HfZn,52.8317,44.2475,-8.5842
Cr2Pd2Br,18.6364,17.5663,-1.0701
Te2MoPd,33.5646,30.4023,-3.1623
Te2MoPd,33.0148,30.4023,-2.6124
TbEr3Pb,19.6866,24.7354,5.0488
SiMoOs2,31.9898,32.9297,0.9399
TeMoPd2,27.1762,25.1411,-2.0351
LiYPAu2,33.3962,29.6067,-3.7895
Ge2Bi2Sb,30.8796,30.8053,-0.0744