Formula,E_hull_DFT (eV/atom),E_hull_ML (eV/atom),Delta (ML - DFT)
Ca3YGa4,9.8377,9.8511,0.0134
CsMnTe2,48.1414,41.6727,-6.4687
Nb3PC,100.097,80.0109,-20.0861
In2FeTc,36.3105,31.2555,-5.055
Na2HfTi2,51.5048,37.3435,-14.1613
PmScInRh,26.4439,23.0514,-3.3925
Li2TlTe,22.9203,23.2275,0.3072
NaCoOs,18.4809,22.6748,4.1939
MoAsPb3,37.3245,38.492,1.1675
NaTlPd2I,27.0498,26.715,-0.3348
Th4ZnAg,44.7041,46.8178,2.1137
NiAuI2,25.6342,26.5157,0.8815
NaHf2TlFe,80.6365,60.987,-19.6496
AcNdPtPb,57.1822,52.6641,-4.5181
Hf2Zr3Pa2,102.5482,83.9238,-18.6243
AcSmTlPt,56.9004,52.3471,-4.5533
Na(CoOs)2,17.3173,22.0514,4.7342
Na2CoOs2,23.9864,26.3656,2.3792
ZnBiAu4,41.8802,43.1565,1.2763
Y3Ga,13.0297,15.2803,2.2506
Na2Ce2I5Br2,20.2768,19.5514,-0.7254
CaYPS,36.8378,32.8769,-3.9609
NaSrPt,24.6296,17.7809,-6.8487
TcMo3Pb,41.2212,38.9569,-2.2643
Tc3MoPb,72.0782,61.9099,-10.1683
Tb3YEr6,22.5191,25.6612,3.142
TcMo2Pb,44.7069,43.1923,-1.5146
TcAgMo2,39.1242,36.1608,-2.9634
Tc2AgMo,58.4837,50.0802,-8.4035
HfZr2BiN,78.5042,63.3155,-15.1887
CrAsPb,25.9758,25.0392,-0.9366
ScTa3,72.6975,66.2358,-6.4617
NaNpBi,44.0821,45.872,1.7898
Th4ZnPd,41.6094,45.3262,3.7169
CoMo2As,16.2104,17.2205,1.0102
Zr3(PdRh)2,60.5293,50.1202,-10.4091
NdYAgOs,28.7637,28.8098,0.0461
Li2AuCN,33.2726,29.379,-3.8936
ZrAlBr2,30.8485,26.8929,-3.9556
ZrAlBr2,30.7577,26.8929,-3.8648
LiSbSN2,22.1462,17.2816,-4.8646
ReOs3,29.6348,37.3397,7.7049
Hf3(ZrPa)2,109.1773,87.8229,-21.3543
InFeRu2,30.9453,26.1357,-4.8097
CaZr2Sb,57.5203,48.5893,-8.931
Sr3(GaN2)2,0.5907,3.2864,2.6957
UGa2Ni,22.7817,25.5825,2.8009
TaCoSe2N,71.7796,61.6219,-10.1577
SnOsRu2,24.1174,28.2046,4.0872
YB,66.0245,59.0541,-6.9704
Zr2ZnOs2,49.2919,47.0223,-2.2696
GdThCuTc,48.6279,47.4451,-1.1828
ZnAuBr4,14.2605,16.4963,2.2358
Rb3PtBr6,16.2556,13.4189,-2.8367
Li2TeW,20.7216,21.4047,0.6831
Ca(TeRh)2,36.9539,30.6654,-6.2886
NbTe3N,54.8294,47.7685,-7.0609
LiAlAg,15.6155,12.0994,-3.5161
Pb2CSe,49.9667,44.5498,-5.417
ZnPdBr4,11.4506,13.1176,1.6671
ScGaSi,15.546,14.3292,-1.2168
LaYNF2,36.7464,29.7295,-7.0169
CaYGa,11.2007,9.5318,-1.6689
VIn3Bi,49.7757,43.8112,-5.9646
Sm2Y(InAg)2,24.4601,23.2482,-1.2119
AcPmPtBr,47.0455,41.9135,-5.1321
AcSbRu2N,42.8635,38.5043,-4.3591
PmZrCdGa,37.3905,35.1367,-2.2539
Pm2HoRu2,32.2693,30.6552,-1.6142
BeGaCu3,6.7828,5.7258,-1.057
Ca2Al4I,8.4867,7.8968,-0.5899
YBO,29.7615,25.7494,-4.0121
Na2MnSbTe4,45.4569,41.002,-4.4549
DyBRu2,0.0,0.0,0.0
Na2CuPtO4,18.1198,14.9438,-3.1759
SiRuSe2,35.3372,29.2659,-6.0712
AuSe2I,42.3785,37.988,-4.3905
SiRuSe2,35.5553,29.2659,-6.2894
Ac2Zn4GaGe3,19.1204,20.3369,1.2165
MgCdP2,7.9575,8.5323,0.5747
ReIr,11.6922,25.2782,13.586
SiPdSe3,30.6805,25.8441,-4.8363
MgH,0.0,0.0,0.0
Na3NiAu,25.9905,22.9914,-2.9991
TePb2Br,43.4252,40.632,-2.7931
Hf2Zr3Tl2,97.7683,78.7319,-19.0364
Ba4ZnCd,4.2888,5.6679,1.3791
ZrTlCd2,47.0445,43.68,-3.3644
Mn2InSn2,52.4045,43.1616,-9.2429
AcInHgPt,42.8388,37.5791,-5.2597
Cs2BaAlSb2,26.2345,21.7296,-4.5048
CaHfP3,42.3131,31.4573,-10.8558
AlCoCl2,17.1739,11.1614,-6.0125
Na2LiNb,48.9797,39.7084,-9.2713
Zr2TaPb,71.5909,66.6833,-4.9076
ZrTaPb2,60.4414,58.489,-1.9524
Sn3IrBr,23.3975,24.5388,1.1414
InSiW,25.1113,25.7493,0.638
Zr2TaPb,71.5704,66.6833,-4.8871
Y2TiPt2,47.803,33.9425,-13.8605
YTiPt3,72.2002,49.7611,-22.4392
BaSr2Au,18.1753,20.4487,2.2733
Re2IrRu2,24.4454,30.0812,5.6358
Ce4PaZn,29.0913,31.984,2.8928
Ir5C,47.3343,46.8737,-0.4605
Rb2SrO3,0.0,0.0,0.0
Ta3PbN,22.8591,29.903,7.0439
AlGaPb,18.0741,20.635,2.561
Al(GaPb)2,21.7559,23.1093,1.3534
PmZrCd4,33.1251,31.3145,-1.8106
ZrSb2Te,57.506,47.6743,-9.8316
Al2Ga2Pb,15.1653,16.7075,1.5422
BaScGa,3.4477,3.5558,0.1081
Y2TiGe3Pt4,48.7642,35.2519,-13.5123
ZrSbTe2,56.4261,50.1058,-6.3203
GaTePbN2,22.4491,22.4274,-0.0217
YZrOsPt,61.3146,52.1444,-9.1703
AuCl2,18.8691,19.5824,0.7133
AcLaThSn,50.6223,48.9294,-1.693
ZrSb2Te,57.4785,47.6743,-9.8042
AcPmPt,58.8768,52.2075,-6.6692
AcPmPtI,49.3057,44.5578,-4.7479
OsRhBr2,29.0556,26.6098,-2.4458
LaY2ZrPt,54.3055,42.0801,-12.2254
AuCl,6.4482,10.1279,3.6797
Sr(In3Au)4,25.7874,26.56,0.7726
AcSm2Sb,39.4432,39.5376,0.0944
Th4BiTe2As,50.6455,52.273,1.6275
AcSmSb2,43.9398,40.6325,-3.3072
LiAlAg,15.5294,12.0994,-3.4299
Zn6CoAu2,19.3582,18.167,-1.1912
AcSmYAg,33.8503,34.0258,0.1755
AgBi2Ru,35.8148,36.2476,0.4328
Cs4RbZn,16.8985,16.9275,0.029
HfZr4Os,96.3172,79.1447,-17.1725
KSnB3,8.8221,9.5069,0.6849
YZr2Pt,74.5179,60.3816,-14.1363
In2AsIr,23.4437,25.5461,2.1023
Cr2NiRh6,40.0027,29.3453,-10.6574
Mn2NbZnN,77.0941,61.3777,-15.7164
Ce4ZnSn,21.1102,23.1162,2.006
Ni2BiSbP,31.3634,27.4662,-3.8973
ErSc2Al,11.2945,13.5982,2.3037
TlCdRe2,67.501,57.9805,-9.5205
TlCd3Re,54.6156,45.482,-9.1336
LiTiAu2,27.1308,24.4338,-2.697
KCuC3,42.7156,29.8403,-12.8753
Cr2Rh6W,39.0622,29.7906,-9.2716
Li(TiAu)2,25.7465,19.4211,-6.3254
LiCuAu2,25.1648,26.6944,1.5296
Ce2InSb,28.1173,27.777,-0.3403
SmLu2Ru,26.7578,30.5048,3.747
Os2PtBr,47.6951,43.4654,-4.2297
OsPtBr3,36.0822,29.396,-6.6862
AuBr2,23.8129,24.8206,1.0078
OsPt2Br,59.4872,47.0715,-12.4158
ZnTc3,63.5618,54.3531,-9.2086
CdRe,76.0926,62.2618,-13.8308
UAl2Tc,44.4778,40.6298,-3.848
NbCrNO2,37.4318,31.0159,-6.416
Mn4FeAg,73.8999,56.8457,-17.0542
LuSb2,35.7225,32.3187,-3.4038
RbSc2SnI,17.9716,14.8253,-3.1463
U2AlTc,59.7706,57.6073,-2.1632
AcSmThSn,43.9737,47.0506,3.0769
Na2Mn4Cd,69.2386,58.0989,-11.1398
Sn2Mo2Pb,44.3036,33.8021,-10.5015
CaSm2Sb,26.0098,23.7593,-2.2505
SrLaV2,76.7243,59.8981,-16.8262
Li2PtW,32.2933,27.5123,-4.7811
Cd(CuPt3)2,57.9821,41.8708,-16.1113
K2Ni2P,11.7476,10.7948,-0.9527
Ba2CrI6,13.1648,13.8918,0.727
Tb2Y5Ho2,19.8907,23.135,3.2443
Ba2AgPPd,15.2157,12.5899,-2.6258
Mg(ZrH3)2,22.977,19.8712,-3.1057
SbTe2PbN,37.5391,34.688,-2.8512
YZr2Pt,74.6464,60.3816,-14.2649
Hf2GeSb,84.8748,62.8747,-22.0001
Ac2PrPt,47.5551,43.4819,-4.0732
Ga2AgRu2,12.2675,13.0866,0.8191
HfGe2Sb,52.0235,40.2172,-11.8063
CsGaAu,26.457,27.4689,1.0119
NaAuBr4,16.5653,17.0211,0.4558
Mn2CrI6,38.0363,32.4363,-5.6
K(SiPd)3,11.0366,8.5801,-2.4565
NbPdSe2,63.739,53.9948,-9.7443
Zr4AgOs,77.5476,66.4906,-11.057
ScSnSb2N,31.7209,24.7435,-6.9774
Li2BeIn,7.4002,6.7484,-0.6518
SmYAgSe3,29.0195,25.8872,-3.1323
MoW3(SeS3)2,46.5541,39.3044,-7.2497
LaSc2PdN,22.6027,17.921,-4.6817
Ni2SbIr,30.011,27.9108,-2.1002
Sc(TiCd)2,11.6117,13.1374,1.5257
Ba2PPd2,8.1453,8.6484,0.503
Nd3FeSb,31.4814,29.142,-2.3395
Zr4PaCd,80.095,69.3856,-10.7094
BeCuAs,7.0831,6.6041,-0.479
TlVSn3,48.4925,43.3748,-5.1176
HfNbN2O,56.8729,44.1354,-12.7375
AlCdSe2,29.359,25.3338,-4.0252
GaSbOs2,28.1306,30.2767,2.1461
Y3GaSi2Ni9,37.9903,32.8628,-5.1275
La2AgSb,44.7301,32.6756,-12.0545
LuSi2Ru,15.3983,13.1786,-2.2197
Sc2TcGeN,61.6958,48.8216,-12.8742
K2TbF5,0.0,0.0,0.0
SrSc2CuN,19.5093,16.6875,-2.8218
KCeF4,-0.0,-0.0,0.0
Sm(DyPb)4,33.6477,36.217,2.5694
SmYAgBi,30.7485,31.2692,0.5207
Tb2Mn4AlFeB2,39.2164,32.1493,-7.0671
Tb13Y3O24,12.4425,13.503,1.0605
Al2CdPb2,23.2546,24.9115,1.6569
BPbC2,57.3092,46.1841,-11.1252
Zr4CdPb,77.3932,66.5994,-10.7938
LaTa2Se,43.9611,39.9798,-3.9812
Cr2Mo2Ru,16.0484,16.2235,0.1751
Mn3Sb,78.1383,60.531,-17.6073
BeNiSe2,25.6241,23.1017,-2.5224
LaNdErIn,31.2163,29.3626,-1.8537
Lu2SiRh,32.2163,28.9277,-3.2887
Be3NiSe,11.4209,10.6657,-0.7552
La2TaSe,40.9575,33.2603,-7.6972
K4Mo2H6S2O9,8.3381,5.3552,-2.9829
Lu2SiRh,32.2532,28.9277,-3.3255
IrPtBr2,41.6423,35.6407,-6.0016
Sr2Zn2Ag,12.6261,12.5341,-0.092
InSi2Pb,26.0797,23.1159,-2.9638
LuSi2Ru,15.5033,13.1786,-2.3247
Ta2InF2,38.4249,34.5267,-3.8982
Cr2NiPt6,66.8513,48.4674,-18.3839
PmSmNiGe,20.3222,19.9825,-0.3397
TaCuSe2,36.1945,32.1618,-4.0328
Sr2YAgSe4,32.9324,26.9584,-5.974
AcPr(H3Pt)2,18.72,14.1987,-4.5213
Ga4Pd9Au2,21.6055,21.7101,0.1046
Cu2AsBr6,12.8271,12.4878,-0.3393
BeGeTe2,19.684,20.8143,1.1303
Ni8P3,0.0,0.0,0.0
VCdSi3,40.1013,29.7653,-10.3361
LiIrW3,33.0845,37.3248,4.2403
Mn2AgGe2,43.7841,34.3999,-9.3842
NdTh2Sc,40.528,44.2772,3.7492
Zr4InPb,77.4061,67.22,-10.1861
Zr4IrPt,78.1002,64.139,-13.9612
ScCrAu,31.4297,29.2025,-2.2272
K(GeP)2,7.5147,8.2141,0.6994
Sm2Cu2Ni5Ge,7.0192,8.7377,1.7185
NbSeN2O,39.41,32.8134,-6.5967
Te(SBr)2,32.5071,27.2284,-5.2786
LiAcZrRh,53.0189,46.293,-6.7259
Mo2IrRu,22.1449,27.8368,5.6919
Ge2BiTe,25.3029,26.6726,1.3697
SrGe2,10.5582,13.2224,2.6642
LaZrCo2,40.4488,34.1322,-6.3167
Zr(SBr)2,40.638,30.8896,-9.7485
TcNi3C,36.9833,29.6414,-7.3419
MoRhAu2,40.0676,38.2768,-1.7908
Na2Sr(InSn)2,20.2549,19.7773,-0.4775
HfMo2P,43.5955,34.5364,-9.0591
Nd2Y5Ni2,57.1158,50.5861,-6.5296
MoIrRu2,28.8846,27.8173,-1.0673
In2S2Br,32.4696,26.3198,-6.1497
NdYNi3,34.2381,32.8603,-1.3778
MoIrRu2,28.5556,27.8173,-0.7383
Mo2IrRu,29.6268,27.8368,-1.7899
Nd3Y3Ni4,57.6735,50.8545,-6.8189
Sb2S2Br,45.1009,35.7354,-9.3655
Ni2Pt,16.1411,14.7454,-1.3957
Li2As2Ru,5.9842,4.7938,-1.1904
Rb(BaCa)2,0.9674,2.6038,1.6365
CsAc(PPt2)2,56.0465,43.1181,-12.9284
Pr6Cu2Sn,6.4433,6.2121,-0.2312
BaNaLi2Cu,9.7556,7.8875,-1.8681
Sr6CdCu2,11.414,11.7345,0.3205
NaHfSc,43.474,31.5582,-11.9158
Tb6Cu2Pb,20.2004,22.9882,2.7878
Sr6InCu2,10.0856,11.8367,1.751
La6Cu2Tc,40.8175,28.6401,-12.1774
Cu2TcI6,23.8237,23.1462,-0.6775
Tl6Au,50.9046,51.5477,0.6431
Tb6Cu2Os,18.2924,21.6383,3.3459
Tm6Cu2Tc,26.9123,27.9452,1.0329
Ca2YW,26.2588,19.8675,-6.3913
Cu2Te6Au,31.5033,31.0602,-0.4431
Nd6Cu2Sn,25.2792,25.8861,0.6069
NaHfSc,59.2365,31.5582,-27.6783
Ge2Bi2Te,34.1883,34.5927,0.4044
Li2Y(AlAg)2,21.98,16.571,-5.409
AlPbSeN2,21.6563,20.846,-0.8103
Ca2YW,26.2407,19.8675,-6.3732
Nd3Y6TmTh2,26.6675,28.479,1.8115
Cu3PC,21.1925,16.0127,-5.1798
Ac2ThCu6,26.0083,27.83,1.8217
MnNiP2Pb,53.7961,47.6421,-6.1539
ReAu3I,42.9014,43.3147,0.4133
Sb2TeAu2,41.9691,38.5749,-3.3941
SbAsOs2,35.1593,35.5191,0.3597
SmNpAs,26.1259,30.9202,4.7943
AcPm(H3Pt)2,21.6807,17.1585,-4.5222
Pa4SiIrSe2,52.1175,51.6036,-0.5138
GaNiOs,5.8599,13.7456,7.8857
Y2ZnSi3Ir4,38.152,34.3994,-3.7526
Li2PtW,32.3714,27.5123,-4.8591
VFeSiIr,47.3995,40.6213,-6.7782
SnSbOsN2,47.4647,37.5263,-9.9384
CaYW2,34.4632,25.0017,-9.4615
Ce2TmCu6,13.2634,15.1068,1.8434
CsYCo2Ag,33.623,27.8297,-5.7933
Li2PtW,32.3621,27.5123,-4.8499
La2TbCu6,18.7128,16.2654,-2.4474
Nb2OsN,101.8678,84.859,-17.0089
CaY3W,30.8453,21.6623,-9.183
CoSb,0.0,0.8751,0.8751
NaLuSn,26.1679,26.2634,0.0955
GaNiOs,11.9541,13.7456,1.7915
SmDy5Pb4,36.9825,38.6565,1.6741
TlPt2Br,61.1973,47.4705,-13.7268
Rb3TaSe,18.8688,16.9113,-1.9575
AcGdGePd,29.5332,32.3394,2.8062
SmDyPb2,38.9926,41.7553,2.7627
AlRh2N,19.007,14.8037,-4.2033
CaTm2VO6,26.083,24.1892,-1.8938
GeBiTe2,37.1506,37.6557,0.5052
CaEr2VO6,25.843,23.9409,-1.9021
Sr2TlCuN,21.4764,18.2645,-3.2118
CaDy2VO6,25.4684,23.5415,-1.927
Ag2TeOs,37.3477,35.1809,-2.1668
InGeSbN2,16.4889,15.2288,-1.2601
ReIrRh,44.5554,43.2069,-1.3485
Ag2TeOs,37.08,35.1809,-1.899
Y2ScI,8.8681,12.6802,3.8121
SrLi3V,29.3347,23.8249,-5.5098
CaYW,33.1897,24.2189,-8.9708
Hf2AuI2,76.4077,59.1491,-17.2586
Li2TlW,23.146,24.823,1.677
La(CeCu3)2,15.6223,15.4825,-0.1397
Y2Si3TcIr4,52.9934,47.0117,-5.9817
RbSc3Si,21.6308,18.5163,-3.1145
RbSc2Si,20.0389,16.8224,-3.2166
Sn3RuAu,26.2191,27.1329,0.9138
Cu2SiRu2,11.4095,10.0137,-1.3958
CaYW2,34.7105,25.0017,-9.7088
NaSrV,55.1649,43.1242,-12.0407
NaSrV,56.6455,43.1242,-13.5213
Sc3Te,9.5496,10.9749,1.4252
SbRuPb2,41.8797,41.141,-0.7387
NbINO2,48.6432,40.2479,-8.3954
LaPrNdLu,26.3851,24.6575,-1.7276
RbZnIn4,12.5622,13.8624,1.3002
TcAsW2,46.0516,44.6607,-1.3909
HfTiP2,37.8333,29.9097,-7.9235
Ac2CdSn3Pt4,56.0062,45.9359,-10.0702
Nd(TmCu3)2,13.8106,15.761,1.9504
ScWN2F,12.0717,12.8688,0.7971
Ho2GaPb,28.9173,31.5974,2.68
K2LaMo,23.9549,19.9273,-4.0276
Y2Ho2Rh3,32.2919,28.6335,-3.6584
TaSiRu2,18.8199,24.3095,5.4896
HfTlCu,51.082,41.8627,-9.2193
Li2IrSe,22.9219,22.4542,-0.4678
Hf3TiP,89.0132,63.3524,-25.6608
Er4IrPd2,27.2717,30.8774,3.6057
La2NdLu,40.4911,34.0555,-6.4356
SrMg(H4Pd)2,7.7187,8.2493,0.5307
ZrCo2Sb,40.0889,34.3451,-5.7438
PPbSe2N,43.7172,36.6962,-7.021
CaCu2Os,13.0674,14.362,1.2946
ScFeSe2N,36.9391,31.6692,-5.2699
Cu2PSe,20.9564,17.8438,-3.1126
AlPbS2N,35.0712,29.0091,-6.0621
CaCuOs2,26.3929,27.192,0.799
YAuBr2,15.7604,19.1706,3.4102
Hf(BiAu)2,64.6268,57.8961,-6.7307
AlZnPb2,29.1682,30.2924,1.1242
Nb3PtI,108.5582,87.0636,-21.4946
AlZnPb2,29.1728,30.2924,1.1197
AcGa2NiPt4,55.0219,42.7247,-12.2972
AlZn2Pb,17.8639,19.2508,1.3869
Al2ZnPb2,20.8891,22.4124,1.5232
Hf2BiAu,97.2395,77.1005,-20.139
Ac(SmCu3)2,17.0218,18.873,1.8511
AcAsAuF,25.7249,28.4614,2.7365
Ac3Cd2(SiPt2)2,55.5006,45.2479,-10.2527
TlMoOs2,34.0752,36.9603,2.8851
NaTcPt3,78.8258,57.4123,-21.4135
TcMoPt2,71.5924,56.0778,-15.5146
LaNbSeN2,49.5452,39.3212,-10.224
ReMo2P,29.7264,28.2312,-1.4952
Ac2Nb(SiN3)2,26.7735,25.1685,-1.605
CrMoRu2,15.7416,17.4624,1.7209
Ac2Cu2PtO6,20.0217,19.1283,-0.8934
Tb6Pm2Th3,37.187,39.8596,2.6726
Y2AgPd,22.2807,23.9033,1.6226
TcSeI2,47.7784,40.9921,-6.7863
Tm(PaCu3)2,22.7582,25.1004,2.3422
Tm(ThCu3)2,22.3732,24.7043,2.3311
Zr4PdPt,74.6168,60.3996,-14.2172
SiTeI2N,22.378,20.0157,-2.3623
CrCu3Ru,13.1736,11.0649,-2.1087
NaZrSc,37.8703,32.1217,-5.7486
Nd(SCl)2,22.9861,17.0393,-5.9468
Ac3In(SnPd4)2,29.3901,29.117,-0.2731
Y2ZnMoN,41.837,32.4353,-9.4017
La2GdZr,57.8547,46.5188,-11.3359
Ba2C,20.8883,15.1867,-5.7016
LaGd2Zr,52.2765,44.6617,-7.6149
Y2TmCu6,22.2115,19.357,-2.8545
NiF,0.3741,0.7042,0.3301
BaYAgPb,48.8297,42.4956,-6.3342
ZrCo2Te,38.0949,34.7245,-3.3703
GdMoP,6.2137,5.2697,-0.9441
SrZnGa4,8.9906,9.9764,0.9857
Y3Al3Si2Ag,36.5016,27.6478,-8.8538
P2WSe,81.0985,66.6108,-14.4877
CuMoPb,41.1297,33.8246,-7.3052
SrLa2Au,36.8986,32.0961,-4.8026
AcAl3Pd,17.5881,19.7946,2.2066
PWSe2,92.2661,77.0847,-15.1814
P3WSe,67.0916,54.7134,-12.3782
Pr5(YHo)2,8.4138,10.2393,1.8255
Tb2TmNpAs4,22.9618,25.5304,2.5686
MoRh2Au,40.3224,35.3222,-5.0002
TaAsI2,24.0381,25.1616,1.1235
K2VBr,41.3673,33.1738,-8.1935
ZrCo2W,38.7294,36.3934,-2.336
TaTlPt3,72.183,55.3388,-16.8443
YZr2Pt,66.993,60.3816,-6.6115
Hf(ZrCu3)2,42.3238,34.3015,-8.0223
Th(ZrCu3)2,33.558,31.3148,-2.2432
TaTl2Pt,57.5286,53.4193,-4.1093
Sm12Y6Er,21.8603,22.9991,1.1388
YMgNi,56.7582,49.5658,-7.1925
Tm2ZrCu6,22.0305,21.8979,-0.1326
AlIr2Se,34.7015,34.8095,0.108
YAl6Si18(N15O)2,11.0624,8.669,-2.3934
Ca2ZrTe,37.492,33.1695,-4.3225
NaSr2La,26.0563,21.4642,-4.5921
Zn5InP,8.9166,9.7344,0.8177
LiThCuAg,26.1454,26.2322,0.0868
CaY(ThBi2)2,47.9283,48.1655,0.2372
AcYTiN3,22.8698,23.5994,0.7297
Ni3Ir,9.2377,13.9238,4.6861
NaBi2As,35.9444,35.5625,-0.3819
In2CuAg6,26.1789,21.3764,-4.8025
TbMnNi,64.4657,58.54,-5.9257
Cu(PbBr3)2,27.4967,24.1469,-3.3499
Tb2TmPa,37.9354,41.4994,3.564
GaPdO2,31.551,28.6179,-2.9331
ReMo2P,38.5358,28.2312,-10.3045
AcSi2Pt,39.2688,30.9325,-8.3363
Ba2LiBe,4.7594,3.7934,-0.9659
Sc2CdW,17.4454,20.5268,3.0814
NbVNO,49.543,42.9777,-6.5653
CdPI2N,27.0697,23.6918,-3.3779
ScCdW2,25.8103,29.5035,3.6932
Li4Pu2Cl9,9.516,9.7914,0.2754
Cu(MoRh3)2,42.1218,30.3815,-11.7402
Zr4RePd,74.857,65.6419,-9.2151
SmTh2MnN5,18.7182,20.0595,1.3413
NaTePt,51.6965,40.749,-10.9475
Ac2PaInPt6,74.9277,59.2161,-15.7116
YVCr2Pd,52.8487,41.8119,-11.0368
Na2BiPb2,38.8505,38.4759,-0.3746
TaSnI2,21.89,24.4084,2.5183
Pm4Er3ThS8,42.2668,35.4631,-6.8036
Er(ZnNi2)4,8.215,10.1574,1.9424
Sm6Tl2Cu,28.5089,30.6776,2.1686
CdRe2Au,66.5084,57.1741,-9.3343
ReSiOs3,37.4524,39.3165,1.8642
Bi3PPb,45.3032,45.6095,0.3063
TaIr2Pt,52.7775,49.6558,-3.1217
PdSeBr3,11.3362,12.9072,1.571
Ta2Ge2Sb,20.3867,22.4387,2.052
SnPPd2,12.4068,12.9238,0.517
SiOsIN2,35.7106,28.1915,-7.5191
Sm2Ni4Ge3P,17.1677,15.4305,-1.7372
IrPtW2,52.449,49.8307,-2.6183
Th(CuI3)2,19.9601,21.9382,1.9781
TaTlW,43.7287,47.3377,3.6089
TaSn2I,26.2155,27.739,1.5236
Ta2GeSb2,27.4792,26.7743,-0.7049
Sm2ErAl6,10.61,12.5503,1.9403
Zr3Al3Sn2Os,42.5694,38.8043,-3.7652
GaPdN2,11.3703,11.1496,-0.2208
Tl2TeAs,38.6436,39.2767,0.6332
Ta2TlW,41.6012,46.3011,4.6999
CuRePt,22.8549,23.3602,0.5054
Cu2SbSe4,35.7871,29.551,-6.2361
Sm2NiGeO6,7.4382,7.3134,-0.1248
TaTlW,43.2615,47.3377,4.0762
KWC2,36.8696,30.2666,-6.6029
TlTeAs,34.5645,35.6528,1.0883
CuSb2Se,36.3153,29.6088,-6.7065
ReSbTe2,42.6854,41.563,-1.1224
IrOsCl,31.6632,34.2345,2.5713
NaCoC,28.0103,19.9582,-8.052
Cu3SbSe,23.1362,19.7671,-3.3691
NbPtAu,85.7074,71.5441,-14.1633
BaCa2PbN,12.0956,13.4902,1.3946
Y3Al3Rh2,40.6916,29.3229,-11.3687
CuRe2Pt,38.7302,36.5009,-2.2293
TaSiTe2,34.5149,32.3828,-2.132
YAlRh,21.0828,16.0193,-5.0636
TaSiTe2,34.2367,32.3828,-1.8538
Ga3PdN,17.7201,15.0617,-2.6585
Tl3SnTe4,39.3452,38.7917,-0.5535
CuRePt,46.0545,23.3602,-22.6943
TaInN2,15.3898,17.9078,2.518
TaInN2,13.9737,17.9078,3.9341
YAlRh2,43.057,31.7941,-11.2628
Ba2CrPb,19.7748,19.3545,-0.4202
Y2HoTmH8,6.5738,8.1282,1.5544
Al2RePt,33.4622,31.0674,-2.3948
CdAg2Sb,31.7618,26.0156,-5.7461
CrTeAs,22.4336,20.771,-1.6626
CoReP2S,45.0493,33.9298,-11.1196
Th4ZnRu,40.794,44.3524,3.5584
CdP2Se,15.5928,17.2301,1.6373
CdAgSb,31.8912,26.9931,-4.8981
CrTeAs2,15.0594,14.1053,-0.9541
ZnAuI2N,28.7253,27.5829,-1.1423
LiAlPb,13.9214,21.9751,8.0537
PrHfSb3,35.6294,25.7769,-9.8524
CrTeAs2,20.0234,14.1053,-5.9182
SrAl2In,10.0475,11.5683,1.5209
Gd2GePt3,55.0341,42.9901,-12.044
HfSb3Rh,65.9803,47.9047,-18.0756
Fe2Co3Ni(BOs)2,20.2483,17.6209,-2.6275
Cs2S2Cl,32.1458,25.9678,-6.178
Na2V2RhSe6,57.9233,44.7865,-13.1368
NaMgV,52.7285,41.5524,-11.1761
AcTbCoPt,46.2466,41.9901,-4.2565
YThSb2N,48.0138,42.6583,-5.3555
Ag2Br,22.3702,18.1056,-4.2646
YBeCrRh2,40.3059,30.0529,-10.253
La2Pr(NdEr)2,29.536,26.0359,-3.5001
ScGeBr3,19.5572,15.0145,-4.5427
AcZn4Pt,30.5126,27.0009,-3.5117
Ac3YTe4,45.5701,45.5815,0.0114
GdGePt,41.6064,34.9222,-6.6842
Gd2GePt,38.4266,34.2138,-4.2128
YAl2Rh,31.6831,24.2177,-7.4654
InRePb2,42.2146,43.8867,1.6721
Ag2TeP,24.2408,21.3871,-2.8537
Zr6Co2Ag,62.4821,52.2865,-10.1956
In2RePb,33.4998,36.2414,2.7416
Sm6Co2Ge,13.6958,16.9273,3.2315
Zr6Co2Os,62.4793,54.0123,-8.467
Zr6InCo2,61.1237,51.3956,-9.7281
TlReRh,48.1237,44.8272,-3.2965
CdIr2I,33.227,35.3312,2.1043
NiTeAs2Br,24.904,21.1012,-3.8028
Er6Co2Cu,23.1962,23.9676,0.7714
Nd6Co2Cu,20.1643,20.7584,0.5941
Zr4RhAu,73.2139,60.4755,-12.7385
NiTeAsBr2,24.1681,20.6197,-3.5485
Sr3AlGe3,12.1684,12.0874,-0.081
Be3CuIr,18.2364,15.612,-2.6244
PrSb2Ir,32.0728,29.3841,-2.6887
BeCuIr,22.8847,22.6919,-0.1928
ZnOs3Pb,40.176,41.6793,1.5033
PrSbIr2,31.6402,32.4665,0.8263
Y6P2RhS3,36.6946,30.6751,-6.0195
Ac2Sb4Pt3Rh,61.7343,48.2713,-13.4629
MgScRh2C,32.9677,24.0752,-8.8924
Pr(Sb2Ir3)2,39.4089,37.5569,-1.852
OsPbCl,33.7207,35.4162,1.6955
NaLaMn2,65.5133,53.6787,-11.8346
Li2Al2In,7.2875,6.7606,-0.5269
DyUAs,28.4824,32.5735,4.091
Np2AgIr,53.9135,54.7033,0.7898
DyThCu4,19.9776,22.1846,2.207
OsRuPb3,44.397,45.7206,1.3235
PrSmAs2,8.7327,12.3954,3.6626
CeYHo2Er,20.3108,23.1309,2.8201
Os2RuPb,39.1106,42.5619,3.4513
SbAs2Ir,27.2516,26.8413,-0.4103
TcIr5,51.6011,53.3266,1.7254
TlZnPt2,55.5252,46.6728,-8.8524
Ce2Y6Ho3Er,20.6505,22.2866,1.636
Nd6Co2Pb,19.079,21.5443,2.4653
Nd6Co2Ir,16.5086,20.3274,3.8188
Pm(Nd3Co)2,15.3066,18.5771,3.2706
La(Dy3Co)2,20.0897,21.2716,1.1819
Ac2Ga12Pt,20.8443,20.0622,-0.7821
ThCd2In,30.8695,32.7045,1.835
V3NiP,83.7436,65.3346,-18.409
ThCdCu,30.6076,33.1135,2.5059
Zr4PdRh,67.8702,55.5544,-12.3158
Nd6SmCo2,15.3358,18.5708,3.235
Nd(Dy3Co)2,17.0801,20.5496,3.4695
Ca2Ni,6.2692,5.3595,-0.9096
AcGa3PdPt,32.7754,28.275,-4.5004
FeRuCl3,20.5973,14.3031,-6.2942
Nd2Y3Ho2,21.0849,23.5061,2.4212
CoAu3,38.2784,37.7516,-0.5267
Th4ZnTc,53.5804,54.0399,0.4596
Li2ZnIr,16.9319,14.6307,-2.3012
Ac2(PAu2)3,37.992,39.198,1.2061
Nb2Te6I,47.0524,43.1013,-3.951
CaPrPd,6.6292,8.1456,1.5164
Li2LaZn,15.2076,11.701,-3.5066
Ca3Th3WN8,21.7422,20.0312,-1.711
Ho6Co2Pd,17.2691,20.0166,2.7475
OsRh2,20.8798,20.0337,-0.8461
Sm3Y3Ho2,16.3404,18.8805,2.5401
Zr4TcAu,88.5574,75.8062,-12.7512
Y2TiSiN,44.6211,36.0693,-8.5518
BeTlCr2,17.5547,18.0854,0.5307
Co3W,15.2331,18.56,3.327
CdReOs,72.8106,60.8572,-11.9533
BeTl2Cr,28.3682,28.8209,0.4528
ScGeSe2N,32.2161,24.3589,-7.8572
Al4Pd9Au2,17.2204,18.995,1.7746
SrFeOs,27.539,27.6188,0.0798
Pr6TlCo2,-0.0,1.4686,1.4686
Sr2NdBr,17.1927,17.3315,0.1388
CdReOs2,65.476,57.4953,-7.9807
Pr(Er3Co)2,15.1323,18.1062,2.9739
Te2AuBr,35.8856,34.9654,-0.9202
TeAuBr2,28.0929,27.8123,-0.2806
AlPtCl2,21.9298,16.3822,-5.5475
Te2AuBr2,30.8381,30.2791,-0.5589
Te2AuBr,32.6417,34.9654,2.3237
AcY2Pt,44.88,40.5654,-4.3145
TeAu3Br,39.9672,39.715,-0.2522
CdRePb,76.9529,63.0287,-13.9242
Er2TlIr,37.7555,40.5934,2.838
ReTePd2,23.8982,27.8647,3.9665