Formula,E_hull_DFT (eV/atom),E_hull_ML (eV/atom),Delta (ML - DFT)
Sc3Ag4,19.8399,17.3847,-2.4552
BaNaCa2Se,32.6835,25.3357,-7.3478
Ba6Pt3Br2,25.9554,18.9174,-7.038
KZnSb2,27.5465,22.7412,-4.8053
CeThAu6,46.2478,48.0499,1.802
Sm2YHg5,11.9941,11.1227,-0.8714
NaScTl4,38.9222,38.7612,-0.161
DyErCdSi,22.3176,22.9182,0.6006
TaNb2Fe5Co2,37.6538,29.7722,-7.8815
LaCuAs2,13.3049,12.2471,-1.0577
La3InMo,38.1029,28.4908,-9.612
Cs2Mg3(As2O7)2,2.3706,1.9548,-0.4158
SrCdAs2PbO8,2.8498,3.7009,0.8511
SbPb2W,47.8311,47.5209,-0.3102
SiAs2Pt,41.7181,33.7122,-8.0059
SbPdW2,35.9675,36.4013,0.4339
SrErZnGe,14.8461,16.7104,1.8643
Sb2PbW,45.5517,42.8618,-2.69
Dy2Ga5Ru3,9.51,11.6479,2.1379
CeErTl6,44.6833,45.8356,1.1523
PuPa2,68.9646,72.8762,3.9116
SbPbW,45.8734,44.8329,-1.0405
SbPb2W,47.7086,47.5209,-0.1877
Sm3Y2Hg3,21.6166,19.2848,-2.3318
GdAs2Au,16.0296,19.4016,3.3721
NaGeSbI2,24.8845,21.9189,-2.9656
ZrCu2Au,39.7794,36.8062,-2.9732
SbPbW,46.6869,44.8329,-1.854
Sr3CaRh,17.5126,14.7665,-2.7462
GdZrPa,65.1613,62.4573,-2.704
Zr2CuAu,62.6199,56.8421,-5.7778
MoWCl,24.3742,23.5367,-0.8375
Np2Ga5Rh3,25.7189,23.7494,-1.9695
DyEr2(TlCd)2,32.1839,34.0822,1.8983
ScS,0.0,0.0,0.0
Ag2Ge2Pt,34.4373,26.7589,-7.6784
Nd(TlBi)2,42.9044,45.2256,2.3212
Be2TlW,28.7865,28.2576,-0.5289
Ga3SnPb,20.3788,21.0393,0.6605
LaY2Cd,24.4972,22.3575,-2.1397
SiTcCl2,29.7937,23.747,-6.0467
Nd(TmAu)2,30.6812,34.2608,3.5796
Nd(TmTh)2,43.6294,47.6643,4.0349
SmSiPd4,12.0467,14.375,2.3284
W3IN,33.0776,34.2161,1.1384
Pm2ZrGe3,28.5937,27.4699,-1.1238
SrLuGa4,13.0672,14.7023,1.6351
VZnGaCo,44.6173,33.5935,-11.0237
YThHg,33.6534,32.5135,-1.1399
CaDy2YHg4,10.2803,10.3578,0.0775
LaBeRe2,33.6127,32.2539,-1.3588
EuTm2Pb,35.3046,37.2407,1.936
ZnSb2TeP,29.2471,24.4463,-4.8008
NaTcGe2,33.887,30.2723,-3.6146
Yb2SbCl,28.3332,27.4702,-0.863
ThSiPt4,65.0591,48.3964,-16.6627
Sm3(YHg2)2,15.7327,14.4968,-1.2358
DyY3Hg5,19.4378,15.5534,-3.8844
YZrHg,44.0117,40.1205,-3.8912
K2HoNi3F12,8.0223,9.9776,1.9553
TmMnP,29.1775,28.0574,-1.1201
SiTcCl2,29.8548,23.747,-6.1078
Li2CeYHg4,11.3368,9.8186,-1.5183
CrInSbTe2,32.4763,28.919,-3.5574
CsLa(PO3)4,9.4887,7.7329,-1.7557
SiTcCl2,28.7726,23.747,-5.0256
CsLa(PO3)2,17.0809,13.7495,-3.3314
YMgZrHg,37.8035,31.2061,-6.5974
CdReAgIr2,60.2069,50.3574,-9.8495
Lu3Pa,42.1604,45.5944,3.434
SrLaTl,35.1061,32.463,-2.6431
SrLa3Os,36.3724,29.9515,-6.4209
SrZnAg,17.663,15.7002,-1.9628
KCa6,6.8437,7.1873,0.3436
PmNdGa2Pd5,18.7857,19.4143,0.6286
TaInSi,23.8892,24.5823,0.6931
Nd4YTm3S8,39.188,32.3319,-6.8561
PmZn2Ru,20.4575,20.0705,-0.387
Te2PRu,26.4283,27.3851,0.9568
Ba2AlW2,25.1158,23.3681,-1.7477
BaCuSb,18.2407,15.5655,-2.6752
Co2AsOs,25.1316,22.7808,-2.3508
Rb2Ge2P,8.781,6.0865,-2.6945
Na2La2Br7,19.5638,15.6609,-3.9029
NaTa3Br,31.8471,32.1087,0.2617
Tl2CdI,35.7887,36.3442,0.5555
Y4ZrCo10(B2C)5,48.8694,40.0592,-8.8102
Li4CuRu,4.8567,5.9529,1.0963
NaLa3Br,38.78,27.2628,-11.5172
Na6Ge2Pt,28.2266,22.4886,-5.738
CsScS2,44.6119,38.5989,-6.013
ScCr3Mo,17.5056,16.1852,-1.3204
Cs9Na3Ca3(BO3)7,10.8275,8.9785,-1.849
CoHgAsSe2,34.5842,30.4974,-4.0868
Cs2LaTh(AsO4)3,0.0,0.0,0.0
ScCr2Mo,18.6652,18.2514,-0.4138
ScCrMo,21.8942,22.1195,0.2253
Ba5Sc,1.0143,2.6616,1.6473
KGaC,23.0121,18.4998,-4.5123
CaCI2,22.9532,20.8849,-2.0683
ScCrMo2,20.0815,21.2406,1.159
YMg2HgGe,13.28,11.2279,-2.0521
Ca2CI2,22.9288,19.7462,-3.1826
Ag7As,28.7566,22.0326,-6.724
ErSc4Bi5,31.5861,33.2196,1.6335
ErTm3Au4,37.9297,39.881,1.9512
PrScSn3,13.2359,12.4458,-0.7901
CrTePb,35.0514,34.4932,-0.5582
CsNaBeMo2,22.8363,18.2047,-4.6316
CsInCo2NiGe3(O5F)2,15.9891,14.0868,-1.9023
Hf2ScF,68.0534,49.6365,-18.4169
Na4EuPb,29.854,26.8989,-2.9551
YHg2P,17.8941,13.6659,-4.2282
CoTe2I,24.9011,26.6483,1.7472
Tl2CdAu,42.0664,42.9223,0.8559
SrTl(AsO3)2,3.7143,3.9132,0.1989
AlPtBr2,30.2935,23.6368,-6.6567
ThInBi,41.8304,46.5359,4.7055
Pm2TmNi2,12.868,16.5432,3.6752
Y3C4,56.3662,42.2575,-14.1087
BaSc,2.9896,5.2256,2.236
Ac(Tc2C)2,79.6113,64.7537,-14.8576
BaSc4Si,17.6465,15.612,-2.0345
Sc3Pa,20.8079,23.184,2.376
RbScTc3,89.1166,71.8278,-17.2887
CsV2Cr(AgO4)2,25.6116,20.2968,-5.3148
BaScSi2,25.8765,20.8639,-5.0126
MoW2Cl,27.7393,28.9866,1.2474
SbRu3,15.7549,17.9114,2.1565
Cs2Ba4Ag,11.4862,10.9619,-0.5243
TlSiCl2,18.5015,17.1581,-1.3433
HfCo3Se,42.4378,33.5488,-8.889
MgAlZn,0.0,0.0,0.0
Na2(NbSe2)3,62.5807,52.2246,-10.3561
Th6P3SeS2,46.2854,47.4646,1.1792
Tb2Sm(ScS2)3,43.8582,37.4945,-6.3637
CuSi2,8.9799,7.9978,-0.9821
Y2GeO5,0.0,0.0,0.0
YHo7Er3,27.5515,29.3921,1.8406
Y3Ga5Te12,16.4386,16.2203,-0.2183
YCu2Te2(AsO2)2,19.0008,17.5071,-1.4937
TaCuPt,45.5346,39.1382,-6.3964
CoP2Rh,25.5484,20.3454,-5.2031
TlSiCl2,18.2664,17.1581,-1.1082
PrLu3,24.0116,26.1181,2.1064
Sm6Dy3YHo2,25.2369,26.8777,1.6408
MnAgBr2,38.8319,31.2036,-7.6284
Ta4H3Se8,34.7642,31.7123,-3.0519
CsRb2PrV2O8,21.1943,16.1235,-5.0708
YPdI2,23.7298,21.8911,-1.8387
TcP2Au,37.2676,34.7267,-2.5409
Cs2PrY(PO4)3,0.0,0.0,0.0
Ni2SbRu,23.2406,20.5766,-2.664
Ba(SbRu)2,18.8504,18.5492,-0.3012
SrGa3Bi,19.4393,20.1917,0.7524
TlIrPb,49.8514,52.1921,2.3407
ZrFeSb2,50.7986,42.6849,-8.1137
KSr2Ga,11.7623,12.7435,0.9812
SrNb2Ga,71.3978,60.5664,-10.8314
Tl2IrPb,49.6575,51.4767,1.8193
SrTiCo2,19.365,17.8505,-1.5145
TlTeIrPb2,48.2979,48.9086,0.6107
SrTbGa4,11.8496,13.5654,1.7158
Tb2Sc2Se2S3,43.6264,37.7932,-5.8332
ScPd3,17.9849,18.2531,0.2682
SrGa3Tc,22.3773,23.9286,1.5512
Pd3IO,29.566,27.0714,-2.4946
PrLu2Ru,33.1618,33.7824,0.6206
SrGaGe,10.4441,11.8753,1.4312
SrGaSe,19.9168,18.4267,-1.4901
La2Y3Cd4,20.5885,18.7208,-1.8676
TiSiO4,1.0935,2.3288,1.2353
SrNi2P,15.9844,15.8722,-0.1122
CsKLaNbO5,23.0062,21.6449,-1.3613
TiAlO,0.0,0.669,0.669
SrNd2Pd,19.8651,22.6692,2.8041
Pr2SbC,17.378,14.941,-2.437
InTeW2,35.7413,37.7128,1.9715
AcNdSn4,23.4704,26.0717,2.6013
MnAgBr2,38.2358,31.2036,-7.0322
LiTcMo2,23.9986,25.7717,1.7731
Re(NiPt)2,61.6232,43.4474,-18.1758
Sr5InGa5,11.33,12.5126,1.1826
AcPmSn4,23.5085,26.1506,2.6421
SrGaRe2Pb,39.3186,35.0184,-4.3001
InRhAu,38.6811,35.6998,-2.9812
BeAs,13.0195,9.0168,-4.0027
SrScGa,4.8695,8.3818,3.5124
SrHo2Ga,19.6309,21.9407,2.3098
Y6Ho3Er2,20.9158,22.5436,1.6278
U(NiRh)2,28.5428,25.9253,-2.6175
SrMgTlCr2,19.5237,17.5295,-1.9942
InRhAu,38.6583,35.6998,-2.9584
SrScGa,4.7166,8.3818,3.6652
CeTaOs2,36.0378,41.3033,5.2655
Ba2SmGeSe5,24.1163,20.9297,-3.1867
HoSiNiC,20.0993,17.5467,-2.5526
SrSc2Ga,8.1142,10.5025,2.3882
DyErCdAg,26.4986,26.4058,-0.0928
Mn3Tc2,87.3126,69.4721,-17.8405
Nb3AsCl,89.6975,73.2306,-16.4669
CaYCr,37.7316,29.3682,-8.3634
Si2MoRu3,22.1559,17.4608,-4.6952
NaSr5Ga4,12.2653,13.0298,0.7645
Ca3Y5,18.1561,14.008,-4.1481
Sr2Tl2Ga,24.3897,26.9013,2.5116
Sr(Zn2Pd)4,10.7792,12.1115,1.3323
InRhAu,38.8589,35.6998,-3.1591
Th2Ni2Rh,16.1138,20.3869,4.2731
SrTa3Ga,67.0782,51.776,-15.3022
TaCo2Ag,41.4866,33.2018,-8.2847
ScSn3,24.5544,22.1419,-2.4125
Nd2Ni2Ru,9.0099,14.3213,5.3115
SrGa3Tc,13.796,23.9286,10.1326
Ta2GaF,63.9387,51.5149,-12.4239
SmCu4AgH,13.0779,13.1261,0.0481
SrEuInGa,17.0828,18.9476,1.8648
Na2Pu(PbSe2)3,46.4608,41.6212,-4.8397
Ce4TlSn,28.3043,30.5234,2.2191
ZnSiCl2,8.1069,6.4726,-1.6343
HoSnAu4,39.2523,40.9575,1.7053
Ba2SmGeTe5,21.5671,21.5897,0.0226
La3Y2Cd3,29.7943,24.3727,-5.4216
HfI3Br,44.4537,35.7081,-8.7456
LiScCuS2,31.5736,23.9879,-7.5857
Ba2PmGeTe5,21.5349,21.5507,0.0157
Pu2Ni2Sb,34.4305,34.1642,-0.2663
Sr2HgGeSe5,26.4401,22.0759,-4.3641
ZnCoGeN2,56.7962,48.8329,-7.9633
NaSc3Mn,29.1296,27.5031,-1.6265
Co(PW)2,101.0944,84.9811,-16.1133
V3AuI,92.8343,74.9239,-17.9104
NbFeO2,42.8835,34.6371,-8.2465
Ac2Cu3Si4Pt,30.4565,25.7532,-4.7033
Ba2SrRe,25.9367,20.5618,-5.3748
NaSrIr3,38.8367,35.7199,-3.1168
Y3ZrIr4,38.5606,39.8089,1.2483
Ba2SrRe,26.1147,20.5618,-5.5529
SrGaOs2,20.5432,24.8579,4.3147
Ba2UGeTe5,26.1556,26.9411,0.7855
MnAg2Br,43.6465,34.8352,-8.8113
Sc3Fe7Co2,31.2347,26.6292,-4.6054
Co2AgAs,22.4264,17.6332,-4.7932
CdTcNi2,35.1733,30.146,-5.0273
SrTl3Ga,34.8529,35.7485,0.8956
Pr2TcCl,21.9015,19.5388,-2.3627
Tl2SiP,33.7485,32.7479,-1.0006
Cs2TbBr6,14.4757,16.3104,1.8347
SrBi2W,49.4666,40.3859,-9.0808
EuDyErCd,26.0546,28.3177,2.2632
Ac3Si2AsPt9,71.2253,53.2243,-18.0011
ScReAgRh2,53.1838,38.4144,-14.7694
ScSbIrRh,43.447,32.3733,-11.0737
Yb2Zn,25.6572,27.1088,1.4516
BeRe2As,18.9472,21.7666,2.8194
BeReAs2,19.3098,18.3087,-1.0011
KZr2ZnCo,50.7326,39.0289,-11.7037
Li2IrAu,22.9131,24.553,1.6399
ZnCoBi2Pd,34.1969,30.6469,-3.55
Cr7Pt,19.1405,15.2686,-3.8719
Na3SnPb3,33.0733,31.9656,-1.1077
LaThZnCo,39.7254,32.3004,-7.4251
Sr(GaBi)2,24.2815,26.3765,2.095
Co2AsBr,19.8016,11.0241,-8.7775
Cs2Nb(ICl2)2,26.729,24.9864,-1.7426
Sr2Ga2Bi,19.5365,21.0266,1.4901
In2MoSe,26.1606,25.0345,-1.1261
PmYAg2,25.0337,22.5812,-2.4525
SnBiPb4,47.653,48.9939,1.3409
CuSbAsIr2,31.4033,30.577,-0.8263
GaAg2Te,28.3869,24.557,-3.8299
Nb3MoRu,93.9245,78.1576,-15.7669
YZr2Ir,63.3327,56.7419,-6.5908
SbPbBr2,45.2453,38.6518,-6.5936
BeSb2Te,33.5825,28.0254,-5.5571
ScBr,4.5829,5.3934,0.8105
Dy4Er4Cd,27.3397,29.5421,2.2024
Na2LaRuO6,13.0435,12.8011,-0.2424
Y2HoPuAs4,19.6258,22.0946,2.4688
Mn2SnTePb,64.325,53.3951,-10.9299
Pr4TlSn,10.6784,10.5225,-0.1559
Sb2PbBr,46.4146,41.5922,-4.8224
Er2GaB2Rh5,33.3043,28.6993,-4.6049
SmHoNiPt,36.4287,31.7043,-4.7244
Y2ZrS,45.1562,38.7215,-6.4347
SbPbBr,47.0909,44.4923,-2.5986
NbSiAs2Se,65.7702,55.012,-10.7582
Y3BiC,17.721,31.459,13.738
YTlPb,38.8615,40.9736,2.112
Sr2Ga4Tc,21.6356,20.6708,-0.9648
Y3IrS,28.0734,26.3878,-1.6856
CaY4,16.9983,15.4576,-1.5407
Sr(GaTc)2,43.1604,37.7292,-5.4312
Sc5IrPd4,23.091,19.0426,-4.0484
SbPbBr2,45.2599,38.6518,-6.6081
SnSbAu4,42.4247,41.8229,-0.6018
TmSnAu4,39.6532,41.3518,1.6986
Th4TlSn,49.4446,53.6078,4.1632
Li2IrPt,33.3517,28.1444,-5.2073
Sb2PbBr,46.3455,41.5922,-4.7533
PrNd2Pu,29.2529,32.1013,2.8484
Hf4SnSb,106.8097,77.6092,-29.2005
Dy2Th3Sc7,24.1433,26.5826,2.4393
Y(NbGe)2,57.3995,49.2207,-8.1787
Tl2PRu2,22.2481,25.2772,3.0291
Ac2ZnAsPt6,67.568,51.2474,-16.3206
Tb2HoNi2,13.0549,16.7189,3.6641
SrTlGa2Fe,25.2399,23.4068,-1.8331
Tb(ThNi)2,27.3582,32.2128,4.8546
BaAg(H3Au)2,9.75,9.7051,-0.0449
Ac5Ir2PtAu,54.2389,53.9374,-0.3015
Ac5IrPt2O,52.9703,49.8976,-3.0727
FeTe2Os,41.5108,37.2137,-4.297
Th2Ni2Te,30.1093,34.3283,4.219
Ni2BiTe2,30.1721,31.0262,0.8541
SmY2HoAs4,13.6161,16.3736,2.7575
Li2TlIr,23.7679,26.1038,2.3359
Sr4TlHg,17.0506,18.4687,1.4181
Cr4Ru3,12.1032,14.396,2.2928
Sm2Ga3Ni4Rh,16.3113,14.9201,-1.3911
SrAc2YSe4,42.9014,38.3722,-4.5292
Tm2Ni2Ir,3.6067,10.3816,6.7749
Cr7Ru,10.0763,10.0464,-0.0299
NaSc2Sn,17.6502,15.7934,-1.8568
ScPS2Cl,43.3258,34.9619,-8.3639
KLi2Au,14.8925,15.1542,0.2617
LaCo2As,27.2523,19.8381,-7.4142
Y2SnAs,24.6981,21.8821,-2.816
NdZnGaPt3,45.7257,34.7184,-11.0073
Zr2TcRu,75.8717,65.4377,-10.434
KBaLi2,7.2538,5.9914,-1.2624
Cd2SiCl,14.3193,13.1493,-1.17
CsKNa14(SiO4)4,14.1861,11.4355,-2.7506
Tb2Th3Sc7,24.0145,26.4506,2.4361
Rb2TeI6,17.322,17.6171,0.2951
YTlTe,35.1121,35.8533,0.7412
Y2TlTe,29.4875,30.6539,1.1664
Cs2HoPu(PO4)3,0.0,0.0,0.0
Cs2MnSn(AsO5)2,16.2829,14.3224,-1.9605
Ba2CrRu,11.5287,11.0332,-0.4955
Ca2HgSb2,18.2963,14.072,-4.2243
LiFe2,17.0249,15.0992,-1.9257
Na(ZrSc)2,40.723,36.1078,-4.6152
Y2AuS,25.7641,25.6515,-0.1126
HfP2OsS,51.74,43.2933,-8.4468
LiBeV,39.7077,32.9662,-6.7415
Nd2Zn3Ga4Pt,18.9545,17.5007,-1.4538
PmMgTlRu,30.545,29.6313,-0.9138
PrSm3DyTh,22.1824,25.7499,3.5676
Ce2Mg4Sn3H2,12.795,13.6007,0.8057
Y5Tl6Pb,35.2338,36.5422,1.3083
Y5TlPb6,35.903,37.2939,1.3909
Sr2TmMnO5,28.6126,28.0061,-0.6065
CeY(HoAs2)2,15.4388,17.967,2.5281
Ac4RuPtI2,53.4454,49.7199,-3.7255
NaScTi,14.4873,17.4559,2.9686
Tb3Tm2Sc7,14.9686,16.9329,1.9643
DyBCl,3.8473,8.8577,5.0104
YTlPb,39.0763,40.9736,1.8973
CsEu2Ni,21.8355,23.0346,1.1991
CePrTl,23.5127,25.7893,2.2767
Pr2ScTaO6,33.0476,27.4121,-5.6355
RbTc3Pt,77.1843,60.8298,-16.3545
Ac4As2PtS,51.582,47.7499,-3.8321
EuAl6Cu,6.9229,8.0123,1.0894
Be2AgBr,13.141,10.3401,-2.8009
P2IrI,21.8008,20.1128,-1.688
BaCr3P,34.3147,26.5156,-7.7992
Be2AgBr,12.3198,10.3401,-1.9797
Cs2NaSr2(MoO4)4,16.1393,14.5942,-1.5451
Mn2SbMoC,63.9742,49.2373,-14.7369
Tm2Ni3P2,19.399,18.6693,-0.7296
YTlPb2,42.3754,44.4916,2.1163
BeAgBr2,14.0212,13.5001,-0.5211
RbTeI3,20.0718,20.3631,0.2913
BeAgBr2,14.2089,13.5001,-0.7088
Rb3TeI6,17.7821,17.7523,-0.0298
La2TiCd,28.378,22.3637,-6.0143
Te2PbI,40.1372,39.9959,-0.1413
Ac4SbTe2Pt,58.2755,54.2298,-4.0457
BeAg2Br,19.7056,15.7323,-3.9733
InW,30.7875,29.5335,-1.254
PIrI2,27.3315,25.6066,-1.7249
AcSm3Ho,29.7678,33.0381,3.2703
K3TiCl6,0.8126,2.2393,1.4267
YHo2NpAs4,21.2813,23.8429,2.5617
Ac2SmTh,55.291,58.2456,2.9546
TeMoPb2,43.5556,41.7596,-1.7959
YHo2PaAs4,20.8384,23.5414,2.703
Rb2Te2I,21.2678,20.551,-0.7168
CaYTl,30.2244,27.0471,-3.1774
Sr4CdAg,18.8747,17.0315,-1.8432
Sr2Ag2I,19.3782,17.6484,-1.7299
TmNi3P,13.6957,15.1478,1.4522
Y2BCl,83.7653,73.3367,-10.4286
Ac4Ir2PtSe,59.3233,56.4672,-2.8561
KCoW2,26.7101,28.0242,1.3142
VGe2P,32.7034,28.0256,-4.6777
V6GeP,98.3373,77.5879,-20.7493
CdAg2Sb,31.744,26.0156,-5.7284
Fe2SiCl,12.2148,9.7922,-2.4225
Sr4TlCd,22.0612,21.7977,-0.2635
Co(PW)2,110.0303,84.9811,-25.0491
Rb2SrReI6,22.0479,19.7375,-2.3104
SmY(HoAs2)2,15.4297,18.1922,2.7625
Li2BePt,23.2245,16.6475,-6.577
La2AlZnH,22.4784,16.8679,-5.6105
Ba2CaTmTe4,23.9444,24.1403,0.1959
Dy2Y3Ho6Pu,28.2254,29.8705,1.6451
Ho(ZnNi)2,10.8163,13.1001,2.2838
InOs2Rh,38.56,38.3631,-0.1969
Ac4OsPtBr2,51.2048,49.1999,-2.0048
SrAc4Sm,49.4767,51.7357,2.259
InOs2Rh,38.2192,38.3631,0.1438
TmTh2Nb,76.6251,73.7907,-2.8344
ScBi,13.7146,21.2734,7.5588
CsTi3Bi,20.6014,21.9758,1.3744
La2YHoAs4,21.6687,19.6623,-2.0064
Tm3Ni8Ag,13.9826,15.4154,1.4328
GdP,33.6086,26.3845,-7.2242
TaMn2Pb,72.3843,61.8876,-10.4967
Mo2OsRu,28.9185,27.1131,-1.8054
Co2SbAs,25.6127,19.5955,-6.0171
TaMnPb2,61.1833,57.0284,-4.1548
Sm4IrSeI2,35.6056,31.6802,-3.9255
Na2ScSO6,36.0045,32.4128,-3.5918
TbTmAg,29.4867,28.8624,-0.6242
CrNiSb3,39.1757,31.119,-8.0567
Pa2AlSi4Ir3,35.943,34.548,-1.395
HoTmNiPt,37.7658,33.0892,-4.6766
PrTmInNi,20.1521,19.6075,-0.5446
CoTcHgAs2,27.9347,22.9897,-4.945
GdTmNiOs,27.9665,30.624,2.6575
Pu6P5S,41.2507,42.7407,1.49
SrLaAg4,31.4746,23.9313,-7.5434
SbRh2WC,51.4007,38.5894,-12.8113
YRh2W,47.4644,32.9314,-14.533
AlCuGe,7.4121,6.6314,-0.7807
Tm2ZrNi2,27.8845,28.2273,0.3428
Pa2SbAu,56.4586,56.4509,-0.0078
Ca2ScSb,19.7892,15.3991,-4.3901
Sr4TlBi,23.3753,25.4984,2.1232
Tb2NiBr2,15.3695,18.1037,2.7342
BaSi2AgGe,14.6399,10.4279,-4.212
Li3Y(HoSe3)2,28.3973,25.1256,-3.2717
Rb2YWI6,22.7434,19.2544,-3.4889
Ni5Rh,13.3752,13.3544,-0.0207
SrCd4Au,22.5563,22.3348,-0.2215
SrCeCd4,20.722,20.1536,-0.5683
Ba2BeBr,2.7947,3.5686,0.7739
Ba2BeBr,5.2272,3.5686,-1.6586
AcZnHPt2,44.6234,37.1877,-7.4357
InRhPb2,43.5018,41.8178,-1.6841
CoRhC3,51.7402,34.6385,-17.1017
SrCd4In,19.8208,19.0796,-0.7412
Pr6Dy3Tm,3.9876,7.1196,3.132
Ca(Sc3S4)2,46.2834,38.5858,-7.6976
Ca2TbY,17.7817,16.0008,-1.781
Y2Rh2W,32.018,22.0854,-9.9325
Ba2Li3YSb4,30.0833,23.8336,-6.2497
Pm2NiI2,19.4802,21.1873,1.7072
ThAlCd2,23.2918,26.6165,3.3247
Th2NiI2,36.0635,39.3716,3.3081
Ti2MoRu,3.2802,9.594,6.3138
YAuS2,36.8537,32.1485,-4.7051
SrMnI2,39.4142,33.849,-5.5651
TmHfBi2,70.5948,62.1579,-8.4369
ZnInBiSb,31.923,30.5579,-1.3652
Sr2BiMo,20.7692,24.5571,3.7878
Ni(MoPt)2,56.8925,44.4142,-12.4783
SrCeIn4,19.2563,20.9243,1.6679
Yb2SnN,26.2342,27.6631,1.4289
Ni(PdAu)2,27.8317,29.7347,1.903
NdTmNiRu,19.1108,22.7195,3.6087
NbSb2TeBr,63.3295,53.3061,-10.0234
KCr2Sb,19.364,15.9616,-3.4024
CsLi4Tl3F12,12.2152,12.8288,0.6135
CsPRu,9.045,11.5588,2.5137
ErZrSbH,36.577,34.2414,-2.3356
CrTeMo2,23.1305,22.3371,-0.7934
ZrUH4,27.8134,26.2247,-1.5887
CrTeMo,25.7723,23.1823,-2.5901
Nd2MnGa4Pt3,44.2766,34.6426,-9.6339
HoIn(CoH)2,4.9171,8.3584,3.4414
Y2RhW,38.7012,28.2333,-10.4679
HgRuPb2,30.8856,32.6994,1.8138
Y2IrCl,53.5199,53.6573,0.1374
Y5Zn3,9.6269,9.3368,-0.2901
LuSiNi,17.4022,18.0343,0.6321
Li2TaPb,19.0591,22.9812,3.9221
La2Pr2YCd5,20.1413,16.9255,-3.2158
TcNi3,27.8506,26.7243,-1.1263
KNi3I,11.4763,12.3733,0.897
KSiCl,10.6878,8.3025,-2.3853
Zr2BiRu,59.2504,55.2517,-3.9987
FeTeAu,30.1515,31.783,1.6316
YIrCl2,51.6842,49.6871,-1.9971
MnBeTe4,45.6597,39.9057,-5.7541
Tm2Tl5Pd12,27.4538,28.9304,1.4766
ScSn,0.0,0.0,0.0
Pr2NiRh2,17.9079,13.7817,-4.1262
FeTeAu2,34.5172,36.7325,2.2154
NaScSi,32.6707,28.8443,-3.8264
LaTmZrSc,46.5902,40.1049,-6.4853
SrLa2(ZnSi)2,29.3892,21.4039,-7.9853
TmNiSn,26.6887,24.335,-2.3537
Sr2CdOs,22.6774,22.6275,-0.0499
HfRu3C,53.1665,42.8103,-10.3562
YIrCl2,51.42,49.6871,-1.7329
Ni(IrRu)2,23.6267,23.2924,-0.3342
Tm6Te2C3,40.1354,36.1419,-3.9934
HgRuPb,18.9248,23.0383,4.1135
TaAl2Rh,22.6578,21.5694,-1.0884
TcTePb,62.9328,58.0839,-4.8488
FeTeAu2,34.3829,36.7325,2.3496
Sc2IrI4,25.597,21.7938,-3.8032
Ni(RuRh)2,37.3476,29.8007,-7.5469
Ba(GaAg)2,14.9493,11.861,-3.0883
Ac8TePt3Se4,62.2229,55.3518,-6.8711
Li3MoRu,9.7319,9.1695,-0.5624
UNbSb,85.1317,75.3101,-9.8216
LaSiCl,22.9751,15.8394,-7.1358
Er2B2Ru5W,20.5404,19.0724,-1.468
ZrTc2Te,81.363,69.4609,-11.902
SrPmAu4,37.1714,38.7451,1.5737
Zr2TePb,72.5327,64.6045,-7.9282
Ac8ZnPt3Br4,51.9697,46.9313,-5.0384
Zr2TcTe,82.495,69.9711,-12.5239
LaCeLuSc,28.9241,27.2192,-1.705
ZrTcTe,78.0266,67.2116,-10.8151
TcTePb,63.0155,58.0839,-4.9315
As2OsI,16.4835,20.6905,4.2071
SrTc2Ir,58.9773,50.7496,-8.2277
KLi2Ni,5.3173,5.6616,0.3443
TmSiNi2,7.6598,10.9437,3.2839
Cs2TmTi(AsO4)3,0.0,0.0,0.0
InPtRh,52.858,39.8392,-13.0188
AcPrPtAu,48.2848,43.6754,-4.6094
GeSbAs2Br,24.1616,22.2103,-1.9513
TlCdGa2,19.6789,21.4872,1.8084
NdInCu2,11.1523,13.2977,2.1454
CsMg14Co,5.4003,5.2227,-0.1775
RbLiTl2Sn,26.6291,26.6408,0.0117
NiBi6Pt,52.9807,50.0293,-2.9515
Nd2TeAs,23.8678,26.5905,2.7228
CsMg14Co,5.3935,5.2227,-0.1707
InPtRh,52.6838,39.8392,-12.8446
SbPt2Rh,68.02,48.7462,-19.2738
Ac6CoPtPb2,54.3029,52.7069,-1.5961
MnSnIrSe,53.0582,46.4975,-6.5607
Tm8In2Ga,26.4218,28.0966,1.6748
Tm2InGa,21.9173,24.7182,2.801
YTlW2,45.5991,40.1824,-5.4167
Ce2Ni2Ir,4.2618,8.4789,4.2172
La2SiCl,29.5825,20.539,-9.0435
Tm6In2Ga,25.6448,27.4877,1.8429
Ba2PrScS5,27.8419,22.5295,-5.3124
Tm6In6Ga,23.7124,24.9323,1.2199
Tm2Si3Au2,22.8235,22.5057,-0.3178
Er(ThNi)2,27.8734,32.7093,4.8359
Tb3Fe7Si2,10.196,9.7526,-0.4434
CrNi3Au,24.855,23.8521,-1.0029
Tm2Si4Pt3Au,42.7199,32.485,-10.2349
Ni2Pd2W,20.2138,20.5428,0.329
Ni2Pd2Rh,19.9326,18.7522,-1.1804
Sc2CdI,12.9903,14.6562,1.6658
YMoW,39.8673,33.8944,-5.973
Ac(H4Pt)2,22.165,17.4784,-4.6866
SrTl4Sn,36.692,38.0686,1.3765
Ca2(Pm2Dy)3,21.9358,24.9955,3.0596
Er2Zn3Si,12.4579,13.8555,1.3976
Ac2TbScS5,45.2344,39.5615,-5.673
Ac2TmScS5,45.7168,40.0184,-5.6985
Pr6Er,1.3371,2.4684,1.1313
YMoW2,39.4986,36.0417,-3.4568
SiSn2P,14.2439,15.5173,1.2734
Er2ZnSi,20.5166,21.2328,0.7162
ScCuSn2S5,45.9816,36.095,-9.8866
ScCuSb2S5,44.0481,31.4969,-12.5512
TmSi3NiRu,11.6963,10.5834,-1.1129
Y2ScCuS5,37.6803,29.0465,-8.6338
ScU2CuS5,46.4491,37.6842,-8.7649
TmZnCo2,19.4882,16.3309,-3.1573
Tm2Fe(SiNi4)3,14.8609,14.0946,-0.7663
Mn2SnRh,59.793,45.979,-13.814
BiTe5Pb4,47.2284,46.4864,-0.742
ReTcNi2,55.7742,41.9657,-13.8085
SrAcTe4,35.7246,36.4784,0.7537
Cs3CrO3,0.0,0.0,0.0
FeRu2W,45.3015,36.0927,-9.2088
ZnFe2H4Au,4.6247,4.7436,0.1189
Dy3Er2Cd3,24.5686,26.3045,1.7359
YAg2W,62.3865,49.317,-13.0695
Ac2Co(NiPt4)3,72.3862,53.0509,-19.3353
Tm2InNi4Ge3,18.1621,16.0075,-2.1547
ZrCo2As,38.6301,31.5398,-7.0903
YTiPCl2,35.2067,33.0405,-2.1661
Y2HgTe,35.2015,29.3925,-5.809
TlSiTc2,63.1934,54.1732,-9.0201
Tb2PrIn,17.1003,19.9542,2.8539
Zn2MoRu,13.3732,14.7984,1.4252
Tm2Ni4Ge3Ir,21.3192,18.7989,-2.5203
BaMg14Cu,4.4568,3.9116,-0.5452
MgNb3Sb,95.7554,78.1752,-17.5803
Na3LiMn,36.4678,31.3851,-5.0827
Tm3Ni9GeP2,18.2325,16.5445,-1.6881
YAg2W,62.4154,49.317,-13.0984
AcU(H3Pt)2,30.8985,26.8092,-4.0893
TmSi2NiPt2,39.9967,29.8919,-10.1048
FeSb,24.7213,27.1043,2.3829
Pr6DyY2Ho3,10.9858,11.3194,0.3336
AcH8IrPt2,23.7826,20.0786,-3.704
InRe2Rh,37.5066,37.038,-0.4686
InOs2Au,38.4254,41.4889,3.0635
InRe2Rh,37.612,37.038,-0.574
NaAcPmAu,40.1521,40.7903,0.6381
Na(SrTa)2,33.9426,26.3461,-7.5965
Tl2SiTc,53.1809,47.6303,-5.5506
FeBiSb2,41.5814,36.5535,-5.0279
BaFe3Sb,22.7236,17.9972,-4.7264
BaFeSb2,27.5648,22.198,-5.3668
AlCdGa2,7.3681,9.414,2.0459
AcTb2(YHo)2,28.905,30.6943,1.7892
RhWSe2,46.4443,39.6249,-6.8194
Mo2RuPt,37.2428,31.1838,-6.059
DyErCdTc,42.0707,40.1681,-1.9026
YMo2W,33.9395,30.8155,-3.124
AcDyYHo2,27.693,31.1793,3.4863
HgIrAu3,37.9518,38.8167,0.8649