Formula,E_hull_DFT (eV/atom),E_hull_ML (eV/atom),Delta (ML - DFT)
ErBPd,9.2034,14.5816,5.3783
Ga2Te2Br,22.2719,21.8251,-0.4469
MnAlSe2,49.4566,40.1361,-9.3206
Cu3(PbSe)2,31.6477,29.8121,-1.8357
YTmBr6,12.4182,13.3842,0.966
La7Ce,48.3638,36.6447,-11.7191
Mn2Al2Se5,48.9041,39.6182,-9.286
Na2La2Al,31.224,24.8433,-6.3808
CsOs2Ru,26.7598,30.4801,3.7203
Dy,23.7012,30.7662,7.065
Sr(ZnCd)2,14.1155,13.5163,-0.5993
Ce2ThGa2,20.7348,24.028,3.2932
MnGeP,24.6363,21.528,-3.1083
La7Tb,43.6472,31.8783,-11.7689
TlNi2C,26.1712,23.4282,-2.743
Be2TeI,26.7711,26.254,-0.5171
HfTiCu2,33.8894,26.59,-7.2995
KSnBi,28.9648,29.4995,0.5347
AgTeBr2,24.0515,22.5235,-1.528
Y2TmHg,32.7717,29.2205,-3.5512
Ca2Tb2Ag3,22.2971,20.3436,-1.9535
Sc3Si3Mo2,28.3138,25.0985,-3.2153
Y2TmGa,17.0247,18.9612,1.9365
Si2IrRu,26.181,22.5558,-3.6252
Be2AlTe,24.5244,19.7371,-4.7873
LaNpPb6,54.4718,53.6871,-0.7847
LiCaYIn,15.6888,13.3427,-2.3461
Cs(ThAu)2,45.6449,49.3061,3.6612
CaPrYIn,13.5839,12.5379,-1.0459
ZrP3,27.0277,24.67,-2.3577
La17Ce,50.2029,36.9963,-13.2066
ScBeGa2,8.0579,8.4813,0.4233
LaTbAu6,44.58,44.1418,-0.4382
La2BiPb5,47.6428,45.6416,-2.0012
Pu(MgH2)3,11.3545,11.6668,0.3123
Ac2NdEr,46.0177,48.835,2.8173
Li3IBr2,18.9612,18.017,-0.9442
BaScIn3,16.9545,14.7679,-2.1865
Er2HfTl,63.2958,54.125,-9.1707
CaYPtPb,44.5291,37.007,-7.5221
Tc2AuSe,70.7257,60.4611,-10.2646
NaY2NiPd,63.4667,55.0917,-8.375
CaYInPb,27.3625,26.284,-1.0785
TcAuSe2,59.2678,50.3756,-8.8923
FeCuC2,44.8685,32.1624,-12.7061
BeNiS2,30.3289,23.5301,-6.7988
Rb2PdI,8.3543,9.3147,0.9604
Ac3La(ThBi3)2,57.8832,58.2341,0.3508
Ca2IrW,31.0154,28.6811,-2.3343
TcPt2Au,79.8501,64.7213,-15.1288
Pr4YEr,6.6395,7.3232,0.6838
AcLa(HgPb)2,32.9169,32.6014,-0.3156
TiCo7,14.2599,14.3529,0.093
Sb2Rh2Se,41.9973,33.0685,-8.9288
CaCr2In,15.5952,13.9832,-1.612
La7Ce,48.3588,36.6447,-11.7141
Zn2Cd2Au7,34.8642,35.81,0.9458
FeSiSI2,25.2292,20.1435,-5.0857
GaW2I,28.136,30.7006,2.5647
Tl2Cd3In2,28.4364,29.1899,0.7535
Ca2Tb2Tl3,30.5259,32.1784,1.6526
Hf2TlSn2,69.7469,55.0576,-14.6894
Cs5Au2BrF,22.5099,23.4069,0.8971
ScCdPb2,32.1781,33.885,1.7069
Ni2P2Ru,7.5354,8.5904,1.055
Cd3(InSn)2,19.8572,20.7624,0.9052
Sc(CuS)3,30.9237,21.7028,-9.2209
ScNiSN2,28.4786,23.9412,-4.5374
ScFeCl2,18.8724,16.3875,-2.4849
Tb2Pm(Y2Er)3,20.7856,22.198,1.4124
Na2HfTa,58.8046,46.6122,-12.1924
KVZnPb2,50.9387,45.0138,-5.9248
Pr(Y2Er3)2,21.2105,23.0342,1.8237
Zn5Rh4,25.7529,20.9318,-4.8211
Na2GaBi2,30.4194,29.5513,-0.8681
Ca2Nd2Zn3,13.2868,13.1642,-0.1227
GdLuPd2,23.714,26.37,2.656
Na2PmCdSb2,26.6486,23.9052,-2.7434
Tb3Tl3Hg2,28.6168,30.1293,1.5125
NiPd3Ru,16.7071,17.6753,0.9682
Na2CdCuAs2,12.4799,12.7784,0.2985
Li2ReSi,19.3361,19.3871,0.051
LaNiPb,25.8684,26.0048,0.1364
Th4FePb2,53.9324,54.9938,1.0614
Pr2Nd3Ho4,15.2321,17.9086,2.6765
TbThO4,12.8136,15.5656,2.7521
YTh2MoC4,48.1072,37.7829,-10.3242
La2TlGaO6,26.7282,25.1506,-1.5776
NaCd2TcBr,34.41,29.8642,-4.5458
Pr12Sm5Er2,6.8128,7.925,1.1122
Ca3(SmPd)2,13.9399,15.9962,2.0563
NaMgTl4,38.4648,38.2914,-0.1734
BeTe2Pb,34.6869,33.6799,-1.007
Np4SeS5,59.9599,52.0354,-7.9246
Ba8La(BN2)6,1.4118,1.9449,0.533
CsNa3Ni,21.2394,18.7335,-2.5058
YTcI2N,60.432,50.6067,-9.8253
Sb3OsPb,46.3646,42.5659,-3.7987
Sc2SnGe2,23.6215,17.0745,-6.547
InAsOsPb2,36.8294,37.4328,0.6033
AgP2PbO6,8.7712,7.8073,-0.9639
BaScFe2,28.7956,25.1706,-3.6249
LaFeTc,48.8059,40.4032,-8.4027
Yb3PI3,25.06,24.9811,-0.0789
Rb2PdI7,17.621,17.6313,0.0103
Sb2TePb2,43.882,41.6841,-2.1979
CoSb2TePb,40.108,35.3153,-4.7928
RbPdI2,12.9102,14.2546,1.3444
NaCaSb,26.3278,21.9159,-4.4119
LiPaOs4,39.1522,42.1229,2.9708
TbAg(PO3)2,5.1245,3.6603,-1.4642
Al2TlMo2,19.5215,18.6376,-0.884
PuAg(PO3)2,8.9594,7.2306,-1.7289
RbSrTa2Os,35.4484,31.7756,-3.6728
Cd2OsAu,32.2249,34.1972,1.9722
Tb3Sm3Tl2,31.8666,33.3584,1.4918
Te3PtAu,48.4765,43.8426,-4.6339
CdTeI3,26.1199,25.6227,-0.4972
Cd2ReAu,61.1266,51.8543,-9.2724
TmAg(PO3)2,5.5399,4.0679,-1.472
TePbBr,45.0232,42.2886,-2.7346
CaMg2CuH8,5.4726,5.0989,-0.3738
CoPbBr2,30.0933,27.0669,-3.0263
NpAsPdS,30.4079,29.1048,-1.3031
ScGe2Rh,10.9382,6.7498,-4.1885
TbBiTe3,36.3254,37.926,1.6006
NpU2(PdS3)2,52.0874,43.9084,-8.179
K(Ag2S)6,38.265,28.1697,-10.0953
La2NpHg6,18.8025,16.2022,-2.6004
Sc12Sb6C,22.1794,17.1968,-4.9825
Nd6Dy6Ho,26.466,27.4467,0.9806
K3SmCl6,2.5274,3.5024,0.9749
K3SeCl6,6.7356,5.6742,-1.0614
LaCe3(ThBi3)2,48.0784,48.6968,0.6185
La2RuAuSe,42.4655,35.5098,-6.9557
Sc(Ga3S4)2,36.0964,27.9604,-8.1361
AlAgAs,12.8754,9.9843,-2.8911
RbOsI2,23.2561,23.754,0.498
Hf2Sc2Hg,53.1984,38.765,-14.4334
PmMg2ZnH8,4.9907,5.4158,0.4251
Th2ZrGe2,41.8589,42.341,0.4821
La5CePm6,36.0187,30.6894,-5.3293
Pr3Y2Er3,13.9426,14.4709,0.5283
La2PbBr,44.397,37.1812,-7.2158
Th(ZrGe)2,55.7101,51.9519,-3.7582
Si(GeIr)2,17.5985,20.193,2.5945
TiSeI2,20.1884,20.9332,0.7447
CeYTcPt,89.612,74.0644,-15.5475
Hf2SbBrCl,76.5291,56.4133,-20.1159
Cs4NaBr2,19.9257,19.5869,-0.3388
LaPbSe4,49.298,40.9354,-8.3626
Lu2In3Ir2,29.9276,32.4974,2.5698
Sc2NiI,11.5587,12.4861,0.9273
CuBiAu4,41.8474,43.1245,1.2771
Cs7Au3F,26.3221,27.3037,0.9815
LaSc2In,21.4998,19.3638,-2.136
PrY2ErSe4,29.2641,25.4451,-3.819
NdYAlTl,37.8946,34.7852,-3.1094
RbGaBr6,9.3531,9.37,0.0169
Y(InSn)2,23.3,20.507,-2.793
NpTiS4,49.1744,40.7319,-8.4426
InOsBr2,22.2643,22.7788,0.5145
TaTi2Sb,15.7897,20.1436,4.3539
KTaAg,27.4932,26.2833,-1.2099
Pr2Co2Ge3,0.3598,0.9006,0.5408
Ga(SiRu)2,18.9048,14.7714,-4.1334
Ta2Be2Pb,23.2516,26.0401,2.7885
Np(GeS3)2,41.4544,32.125,-9.3294
PuNp3S4,62.2478,54.8291,-7.4188
Na(FeC)2,30.283,21.939,-8.344
CoS4O,34.6361,26.9452,-7.6909
Ce4Si3Ir,22.7653,22.074,-0.6913
BeHgBr2,5.5112,5.7605,0.2493
ScCoCuTc,80.9683,65.4421,-15.5261
Cs2InAuF6,14.9274,16.4913,1.5639
LaScIn3,26.2692,21.9248,-4.3444
Li2LaFe,30.4577,24.0392,-6.4185
NaLaIn2,28.7023,25.3511,-3.3512
CaGaGe,3.3737,6.2764,2.9027
LiEu2WO6,16.05,17.8458,1.7958
NaFe3C,23.9203,18.5836,-5.3367
FePHPtSe,41.1071,32.9652,-8.1419
La2ScIn,33.2011,26.7815,-6.4196
NaBeCd3,18.132,16.7064,-1.4256
Na3TaCd,27.2843,24.7486,-2.5357
NpGa2Co2C,28.156,27.385,-0.771
NaSr4O,3.3071,3.8427,0.5356
KZnIr2,31.1965,28.5755,-2.621
Ti3GeIr,15.5882,16.6841,1.0959
Pu2GeI2,39.1269,40.4471,1.3202
EuSnRh,32.1407,29.0501,-3.0905
ScBeW2,27.0045,26.3079,-0.6966
Ti6Ge4Ir,10.7825,12.2424,1.46
YPd3,24.6619,23.5787,-1.0832
Pr3Y2Tl3,16.9099,18.5484,1.6385
Sc(BeW)2,16.1163,17.7358,1.6195
Rb4TeO,5.1317,4.3955,-0.7362
BaNi2Te,15.2951,12.8183,-2.4768
Li2PAu2,20.6394,21.3855,0.7461
KNpAgS3,40.2943,34.1425,-6.1518
NaYInPd2,25.8887,23.4266,-2.4621
Y(GeRh)2,27.0598,21.5673,-5.4926
Sc(BeMo)2,10.4657,11.0971,0.6314
PuInNiPt,47.5479,42.17,-5.378
Y(SbAs)2,24.6465,23.1541,-1.4924
Ac2Pr3Co2,18.1132,19.9644,1.8512
SmY4TmS8,38.4629,30.7626,-7.7003
La2SmGe2,23.0842,20.1887,-2.8955
NaLiTl3Pb,35.7936,36.413,0.6193
BaCaPb,19.2406,20.8375,1.5969
Na2CaIn9,19.3073,19.1288,-0.1784
BaCaOs2,23.3436,25.5365,2.1928
CdIrI3,27.4414,27.6536,0.2122
La3(PmY4)2,24.2891,22.1173,-2.1717
Pr2Y3Pt2,30.2622,23.7371,-6.5251
TmAgSb2,37.5119,30.1405,-7.3714
SrGeTe2,26.2335,26.2423,0.0089
La15Pm,49.9961,36.314,-13.6821
SrTc2Te,60.9934,52.4074,-8.586
Np2S5,36.2158,28.8843,-7.3315
LaPr2Bi3,27.9815,28.8098,0.8283
BaScBe2,7.2384,5.6348,-1.6036
La3NdTl4,47.4535,43.1396,-4.3139
Y2Ga3SiPt4,47.8817,36.6213,-11.2604
Ce2PaGe2,26.8263,28.9098,2.0836
Ni(SbAu)2,38.2026,34.4538,-3.7488
TlSb2Ru,34.7669,33.9061,-0.8609
YBiCl6,27.9718,27.8594,-0.1124
Zr(SbPd2)2,37.8047,33.3983,-4.4065
CeMgZnBi,22.8505,24.0428,1.1923
Tl(Cu3S2)2,28.7793,24.3711,-4.4082
Tb2DyB6,8.855,11.4985,2.6434
Li2Sc2Sn,8.7821,7.3484,-1.4337
Ba2LiSn,4.3005,6.625,2.3245
Ce2Nd2Co3,16.6429,18.8442,2.2013
YReRu,20.0246,20.3461,0.3215
Y3CuSi2Pt9,69.6113,50.5161,-19.0952
InRuBr2,19.5959,18.0937,-1.5022
BaYIO6,21.6026,18.6235,-2.9791
Mn2AgRh,69.986,55.3814,-14.6046
GdPb3,46.6096,48.7367,2.1271
CaTa2W,29.6972,34.0063,4.3091
Ta2Co3Au2,51.2614,41.5037,-9.7577
PrTm12Sc7,20.2335,21.4052,1.1717
RbZrTl,46.5069,43.8536,-2.6533
Tl2AgSb2,41.9047,38.0719,-3.8328
Cs2TaAuF6,21.8878,21.0341,-0.8538
Pr3GeO6,5.4453,4.1823,-1.2631
YSi2Pd2Pt,37.9585,30.5651,-7.3934
LuBi2Pb,48.5824,50.4652,1.8828
Rb2ZrI,29.0487,25.5737,-3.475
Rb(ZrI)2,45.1187,39.3846,-5.7342
MgPa(CuH4)2,12.3219,11.8665,-0.4555
Sm2ScCu,31.1169,28.5595,-2.5573
NbTe2Au,63.6169,56.6629,-6.954
ScCuSn,36.526,31.9979,-4.5281
LaMg(AlH3)2,9.8744,8.1861,-1.6883
Ba2MgBiO5,-0.0,2.1605,2.1605
PrY7Tm12,23.4019,24.3601,0.9583
TaSb2,42.5677,40.5178,-2.0499
Sm4Cu2Sn,31.9388,31.6308,-0.3079
NaCaNb,47.937,39.8283,-8.1086
ZnRh,18.8993,18.9082,0.0089
Ca2TaSb,20.4988,20.6807,0.1819
LaTb6Pr5,15.6068,15.5709,-0.0359
Sm2Cu2Sn,29.7713,28.9039,-0.8674
AlB2I,6.4648,7.0682,0.6034
Ca2MgGeO5,13.7506,14.0644,0.3139
K(TlCl2)2,17.6331,18.156,0.5228
Ni2GeF,13.4174,13.4022,-0.0152
Y2SiPt,47.2874,39.6991,-7.5883
La(PrGe)2,5.9392,6.3705,0.4313
K2Ag3Cl5,9.9219,7.9752,-1.9468
ZnInTc,40.3678,36.0622,-4.3056
NaLi2NdP2,15.7844,14.4635,-1.3208
La(PuGe)2,33.4551,32.7323,-0.7229
AgMoBr2,14.2778,14.1358,-0.1419
Zr(TaNb2)2,105.6808,88.3617,-17.3191
LiCuBr2,19.3949,16.6818,-2.7131
ZnIn2Tc,35.265,32.0841,-3.181
AcGdTm,41.5636,44.4136,2.8501
NbPtI3,60.8347,49.0169,-11.8178
PrYInSn,22.5565,18.9444,-3.6121
Nd(NbGe)2,64.6627,54.552,-10.1107
LiPrIr,7.2566,11.4849,4.2283
Ti3MoOs,7.296,10.9478,3.6518
Sr2AsP,18.0777,17.7036,-0.3741
CaTaSb2,34.5037,31.5428,-2.9609
Cs2NaAuF,24.8571,24.4004,-0.4568
Cs2LaPbS4,41.7716,33.8373,-7.9343
Hf(ZrGe)2,62.9277,51.277,-11.6506
CaTaSb,30.9266,28.8528,-2.0739
Pa3(ZnTc2)2,65.1979,59.1397,-6.0582
TlTe2Ir,45.4366,45.2318,-0.2048
La2Tm3Co2,29.5284,27.7456,-1.7828
PrSe3,28.7453,23.1952,-5.5501
K2Cd15Pb2,21.8945,22.2248,0.3303
ErRh2Pb,44.5406,39.3137,-5.227
Si2GeAu2,22.9792,22.1125,-0.8667
Ac2Nd3Co2,30.7173,32.6119,1.8946
Ca3TaSb,21.2147,19.4493,-1.7654
Ti3NbPd,26.6714,25.731,-0.9404
Cu(GeIr)2,16.0988,20.3771,4.2783
PmYMgTc,68.3879,59.2334,-9.1545
Y2MnTlIr,44.9663,42.4748,-2.4915
TaBe2Mo,19.5904,19.6007,0.0102
NaSr(CdIn)2,20.7964,19.3368,-1.4596
Cs2TeAuF6,22.6955,21.4423,-1.2532
Sm3(ThCo)2,31.2127,33.886,2.6733
CuGeIr2,25.7504,28.6239,2.8735
Zn4AsIr,16.7921,15.8214,-0.9707
TbY7Tm2,18.7025,20.8158,2.1133
Sb3AsIr,38.2247,34.3812,-3.8435
Na2PuGaSb2,31.1189,28.5457,-2.5732
TaSb3,43.3822,39.5139,-3.8683
NaNbCd,51.4004,44.4233,-6.9771
CuSbAu,29.1289,29.1229,-0.006
CeSm2Pd,22.8625,25.7609,2.8984
TmGa2,11.2736,14.9538,3.6802
Ce2ScGa,15.9934,18.9114,2.918
CeScSn,21.0681,19.6418,-1.4263
K(GaTc)2,37.782,33.7742,-4.0077
Cs(LiSb)2,19.6679,17.1973,-2.4705
Ce2ScGa,15.6511,18.9114,3.2603
Ce5Ga4Ag,18.5411,19.8823,1.3412
Ca2NdLu,17.3253,19.6474,2.3221
Y9Mn9P4,49.3021,37.5651,-11.7369
Ce2GaAg2,19.5482,19.0528,-0.4954
NbCuB2,48.1249,32.8374,-15.2876
Zr2Mn2Sb,79.8184,65.9341,-13.8843
K2FeIr,17.9104,18.3003,0.3898
Mn(Ru2C)2,44.6217,37.4856,-7.1361
TcPdI2,35.6343,32.723,-2.9113
Pr6PtRh3,13.9992,9.0078,-4.9914
ZrSnRu2,30.6443,32.142,1.4977
Ni2Ru2Au,12.487,17.5939,5.1069
ZrNbTeBr2,61.3668,51.0414,-10.3254
Pr8BiIr2,9.0183,10.4997,1.4814
Cr2Ir3Os2,34.3994,35.8676,1.4682
Tb(NdGe)2,12.6563,16.0064,3.3501
Tc,65.9974,59.0056,-6.9918
InPtBr,41.2409,33.2675,-7.9734
Ca2FeTc,41.9777,34.4718,-7.506
Ba2NaAuF,14.9611,14.8254,-0.1357
LiURh2,41.342,35.7989,-5.5431
K3TaAg,22.1392,19.6459,-2.4933
SmYNi,63.595,58.1198,-5.4752
MoRuS3,42.3394,31.8939,-10.4455
ZrTaGa2,58.326,48.8918,-9.4341
YSb2PtAu,48.8748,40.9212,-7.9536
LiGdO2,21.187,21.9086,0.7217
ThIr4Au,47.5426,50.2242,2.6817
AcLa2Br8,21.8698,20.2044,-1.6654
Y2SbPt,39.4982,34.0294,-5.4688
CaPt3I,60.4891,44.449,-16.0401
La11Ce,49.4629,36.1894,-13.2734
La11Ce,49.4722,36.1894,-13.2828
Al3Cu2Si3,23.6938,20.0289,-3.6649
P2Rh,18.7153,16.2214,-2.494
Ir3PbC,49.3642,46.8223,-2.5419
ZrZnPb3,53.1842,50.658,-2.5262
Ti3NbTl,34.342,32.3918,-1.9503
Sn2Rh2Au,37.3727,32.6761,-4.6966
NbIn3Ni,42.0382,36.8932,-5.145
NiBIr3,29.8247,31.6104,1.7857
YSb2TePt,47.8585,39.1996,-8.6589
LiCoRu2,10.4976,13.2749,2.7773
Hf2ScPb,86.2155,65.9419,-20.2737
PRu2Rh,25.4753,22.9928,-2.4825
Sn2RuPb2,28.0632,29.8602,1.797
MnHgAu,49.2141,43.2633,-5.9508
LiSbIr2,32.8523,34.0555,1.2032
Ac2NdGe2,28.6641,32.0002,3.3362
Sc2TaCu,83.3285,66.8699,-16.4587
AcTb2Sm3,32.4983,34.2094,1.7111
AgSnP3,13.5929,12.8546,-0.7383
Ta(CuRh)2,24.1511,20.7931,-3.358
Sm2Cd3Cu2,17.0683,18.6348,1.5666
LiZrCu,35.7848,31.7594,-4.0255
AcTbSm,34.3247,37.6053,3.2806
PRuRh2,40.6151,31.6581,-8.9571
Fe2PbBr,19.3711,19.5265,0.1554
LaNpAu4,51.3467,50.5149,-0.8318
Na2ZnIn5Ag2,19.4591,18.2128,-1.2464
Ti3SnAu,22.429,16.7258,-5.7032
Nd3Dy(TlS2)4,45.983,38.717,-7.266
LiSbOs2,32.5355,33.3558,0.8203
V3NiIr,88.0324,70.6642,-17.3683
TaTi3Sn,13.9278,13.3976,-0.5302
TeAsOs,32.4198,33.4822,1.0623
Ti3ReTc,19.5249,21.8448,2.3199
Rb(NaSn3)2,19.3919,19.1753,-0.2167
Pm2Pr4ErSc,8.8825,9.8228,0.9403
ScSi3Sn,30.5664,22.8221,-7.7443
Ti3BiTe,15.4717,18.4139,2.9422
RbNa2Sn,17.9805,15.9557,-2.0248
Sn2SbOs2,28.3372,30.9819,2.6446
RbNa2Sn,17.8979,15.9557,-1.9421
ScBe2In,12.8306,10.2745,-2.5561
CsNaI,23.2583,22.9041,-0.3542
GaSb3S,40.4842,32.8091,-7.6751
Rb2Na5Sn4,18.9551,17.3622,-1.5929
ScBeIn2,16.3682,14.0429,-2.3253
Hf3CdH,70.8203,48.0636,-22.7568
Cs2AlBr6,12.2037,13.4593,1.2556
PmThO4,12.5521,15.0462,2.4941
LiLuSn,17.9824,20.2529,2.2705
CaCoIr,29.4122,26.4003,-3.0119
CaYTc2F,70.8099,58.696,-12.1139
Y4TlIn3,22.1257,22.5863,0.4607
SbWCl2,18.2822,19.0645,0.7823
CaNbTe2I,51.3006,43.4761,-7.8245
NaZrMo2,39.3643,36.2371,-3.1271
Y2MnTeC,52.8313,43.5101,-9.3212
Ca2LaW,25.8574,24.1779,-1.6795
NaTc2Os,63.7411,56.0728,-7.6684
NaLiInNi,13.9874,13.0794,-0.9079
ScPd2Pb,26.7987,26.8932,0.0945
YTcNi2F,56.5827,47.7068,-8.8759
YUO4,23.6709,25.4505,1.7795
SmThS2N,31.4591,29.2117,-2.2474
AsW2Cl,25.1328,26.2005,1.0677
Ba6Sc2Fe4O15,15.0717,12.1503,-2.9214
Ba6Sc2Fe4O15,21.9881,12.1503,-9.8378
NbV(AsO4)3,10.0099,8.9986,-1.0113
TlSbP2,25.8651,26.6026,0.7375
Cu3(AgAu)2,25.3693,24.6787,-0.6906
ReWCl2,23.355,24.7861,1.4311
CaCoIr2,33.0163,30.7482,-2.2681
VCu3Ni,32.0034,26.9188,-5.0846
ScPdPb3,40.0504,39.1449,-0.9055
YBS2N,62.5626,48.8921,-13.6704
YAlPb2,45.6908,41.9734,-3.7174
CoSbAs,20.4959,18.0416,-2.4543
Mn7Cd2Sn3,66.5878,55.3431,-11.2447
CaBiPt,49.2284,42.0351,-7.1933
K3V5S12,50.0053,34.6966,-15.3087
Re2WCl,31.708,35.502,3.794
Pu3Si2Sn3Pt,45.7342,40.2861,-5.4481
TlSbP2,25.9287,26.6026,0.6739
Be2AgSb,20.8953,18.2777,-2.6176
SiAg3Ru,29.1913,22.0985,-7.0928
Si2AgRu,22.7722,17.4382,-5.334
Th6BC2S3,59.7807,52.9086,-6.8722
PmPRu,22.6976,23.0572,0.3596
Cs2Cu2Rh,22.9546,20.677,-2.2776
BeAgSb2,31.3654,26.2893,-5.0761
La5Tb6Pr,34.4257,29.1416,-5.2841
Zr3(TlCu)2,58.4721,52.9943,-5.4778
CuAsPS2,34.7301,26.311,-8.419
InPb2,41.7415,43.6107,1.8692
SbWCl2,23.4038,19.0645,-4.3394
Na6Au,27.7819,24.2983,-3.4836
Cs2NaCa,18.8252,18.5405,-0.2847
K12RbNa6,15.4923,12.8661,-2.6262
CeNi2Ge,12.2314,11.6129,-0.6185
PmScP,39.683,33.4596,-6.2234
FePb2W,40.454,39.7755,-0.6785
Cs6Na,24.341,23.7905,-0.5505
WCl3,7.9276,9.4143,1.4867
HfTiCu3,28.2006,22.2546,-5.946
Tm(Zn2Pt)2,29.9249,24.7956,-5.1293
BaP2PdO6,14.0746,12.5923,-1.4824
La2NdHg3,17.6138,14.5217,-3.0922
ZrRh2Pb,55.3486,47.9106,-7.438
Na3I2Br,20.5574,18.5931,-1.9643
Rb2Na2Te,16.6838,14.1387,-2.5451
SiAgRh,32.2921,24.3788,-7.9133
Mn2TlRu,66.803,58.1519,-8.6512
Sm5Ni2,14.1853,16.5321,2.3468
ThGeS,11.1945,13.688,2.4935
Th6Ge2CS3,52.5839,48.8369,-3.747
TaMoP,29.5937,26.8192,-2.7745
Rb4TiI5,11.925,12.1386,0.2136
VSn2Ge,40.3046,35.8938,-4.4108
Sc4N3,1.5692,6.0272,4.458
PmAgSb,33.026,30.3408,-2.6852
ZrCu2,31.6164,31.1419,-0.4746
TaMoP,29.5135,26.8192,-2.6943
ZrOs2Ru,49.6006,49.9193,0.3187
LiLaMo2,15.3928,16.9891,1.5964
CoSb3As,34.9056,28.594,-6.3117
Ti2(GaCu)3,9.1062,8.5012,-0.6051
Ta4MoP,33.8412,33.9661,0.1249
LaTb2Pr,25.0172,24.1204,-0.8968
RbSrI3,15.2963,16.3114,1.0151
Co3SbAs,23.8716,18.7142,-5.1574
GaAg3Sb,29.9177,24.5542,-5.3635
Ti2(IrPt)3,50.3562,42.8674,-7.4888
ScVS2Cl,63.3617,48.3077,-15.054
RbGa2Te,12.3452,13.737,1.3918
Ba2CdGe2O7,7.1741,6.7066,-0.4675
Pm2ErGe2,13.2445,16.5956,3.3512
Rb3Y(US3)2,39.9674,32.9886,-6.9788
SrPrSm2,14.8666,16.5838,1.7171
NaAcLa,47.0428,42.2473,-4.7954
Sc(FeP)3,30.265,24.1085,-6.1564
TiNb3Ga,88.4441,71.2781,-17.166
Zn4N3,21.3056,18.6895,-2.6161
PIr2,39.5037,36.9529,-2.5507
ThTiO4,-0.0,3.1855,3.1855
PmTl2SnS4,45.9066,38.3312,-7.5754
NaAgPtN2,31.1083,25.2669,-5.8414
PIr,29.0018,26.7643,-2.2375
U2Si2Ni2C,33.8458,31.4205,-2.4253
SrPbSeI2,27.8609,26.9628,-0.8981
Zr4GaBi2,73.0754,64.936,-8.1394
Rb2YUS6,35.5747,26.8649,-8.7098
Pb3SeI,46.5351,43.9522,-2.5828
Nd6YHg2,21.7977,22.3063,0.5086
Ba(InIr)2,19.9098,23.3808,3.471
TiGeRh3,24.579,18.5284,-6.0505
SrMg2TcH8,10.9042,10.0907,-0.8136
CeB2PbO6,6.826,7.6229,0.797
RhPbF6,17.8336,18.0328,0.1992
ZnOF4,12.8434,10.1179,-2.7255
RbYUS4,36.3261,28.4162,-7.9099
Cd2Pt3Au2,57.4573,47.3797,-10.0776
PIr,0.0,26.7643,26.7643
Rb2SrI,9.4662,9.7403,0.2741
Th4BiOs,51.9644,54.2814,2.317
Pm2PrGe2,6.5075,10.1513,3.6438
ThScS,54.8232,52.3337,-2.4894
Pr3BSe6,20.5722,16.9136,-3.6586
CsNa2Ca,19.7543,17.9444,-1.8099
BaSrCr2,17.3521,15.7897,-1.5624
SrBe2Br,11.4225,8.7864,-2.6361
BaLiCr2,15.1196,13.3924,-1.7272
Be2IrBr,14.3529,16.4549,2.102
Pu(ReGe)2,45.7394,42.0015,-3.7379
CdRuBr2,19.7333,17.8218,-1.9116
BaHf3W,96.619,70.3636,-26.2554
CsSrCa,16.7262,15.343,-1.3832
PaV,98.3034,86.6944,-11.609
CdRuBr2,20.1032,17.8218,-2.2814
ScSCl2F,28.459,23.4835,-4.9755
TlNi,17.5992,22.5662,4.9669
Ba(SrZn)2,6.7426,8.5865,1.8439
ZrTl2VPb,77.2077,68.1082,-9.0995
BeInBr2,10.8984,11.7189,0.8205
RhCSe2,52.8526,39.2375,-13.6151
CdRuBr,22.908,20.896,-2.0119
SrTaOs,42.1386,38.1932,-3.9453
Nd2GeRh,20.004,19.661,-0.343
YbSnOs,26.5232,29.7805,3.2573
Ta2InOs,33.707,38.2578,4.5507
Ta2(TiMn)3,48.1989,43.0891,-5.1099
Ta2InOs,33.8394,38.2578,4.4184
Ca2RuW,21.3799,21.2268,-0.1531
Sr2TaOs,35.7917,32.017,-3.7747
Pm2TmAlC,28.4577,25.8241,-2.6336
Cr2SeI2,22.1057,19.6402,-2.4655
Tb2Ce2Tl3,36.2654,38.2103,1.9449
Tb3PtN,32.9967,31.4122,-1.5844
NaCuHg2F6,7.0404,7.6274,0.587
TaIn2Os,29.9766,33.0405,3.0639
K2YBe,13.9036,10.3349,-3.5688
Hf2Ge2Ru,38.6484,27.2963,-11.3521
NaSi3Os,22.6335,18.4772,-4.1563
PrSmTh2,38.1702,40.628,2.4579
Th4OsPt,57.0346,55.5679,-1.4667
Zr4SiPt,73.8361,59.9288,-13.9072
SrBrCl,18.6808,19.0462,0.3654
SmSn2Pb,29.4291,31.3171,1.888
CsTh2Te5Au,40.2019,40.9729,0.771
Sc2TiRe2,45.0112,35.1772,-9.8341
Na2CaCoF6,7.4815,7.1457,-0.3357
Ce2Tm3Th2,39.181,41.6998,2.5188
Ge2RhSe2,27.9249,22.6347,-5.2903
AuBr2Cl,17.0302,18.7173,1.6872
Ba4TePt,22.0928,18.2307,-3.8621
SiAsBr2Cl,19.726,17.1168,-2.6092
ThSc3S,34.7154,33.584,-1.1314
TaIn2Os,29.9498,33.0405,3.0907
MgAl2TlH6,6.9927,6.3545,-0.6382
SrTa2Os,40.9017,39.0727,-1.829
VP2OsS,48.3404,42.6477,-5.6928
Th2Ge2Se,32.4522,34.6437,2.1915
TaIn2Os,24.0868,33.0405,8.9536
Ce3(TmTh)2,38.3732,40.733,2.3599
Sm2Ge2Bi,23.9113,25.9899,2.0785
Ta3SnI,32.9411,34.4603,1.5192
ScCr2Ga,16.0371,13.7663,-2.2708
ScBeW,0.1776,3.9871,3.8096
Tl6SeS3,48.8297,43.5452,-5.2845
Ta2InOs,33.9203,38.2578,4.3375
NbAgB2,39.0388,32.7543,-6.2845
Cs3HfSb,53.4113,42.8422,-10.5691
ScBe2W,19.9942,16.9965,-2.9978
Mg(ZnPd3)2,9.2584,11.8519,2.5935
ZrPBrCl2,26.2413,22.1047,-4.1365
PmPrErSc,15.1938,16.6888,1.495
Al2TcPd2,22.2603,20.5905,-1.6697
HfSc2RhO,90.1838,72.1973,-17.9864
Sr2ZrO,34.0375,29.2709,-4.7666
Ba2SrGe2,6.1365,7.9053,1.7688
Ce2Tm2Th3,44.2266,46.7,2.4734
Ce3(TlPb)2,40.0195,41.6629,1.6434
Ba4PPt,21.2038,15.9971,-5.2067
La8Ce,43.7276,31.3071,-12.4206
ScBe2W,19.6549,16.9965,-2.6584
Hf3CdIr,98.9707,73.4808,-25.4899
Rb4PBr,5.3112,3.6329,-1.6783
Tm3Pt2Au3,50.5708,45.7861,-4.7847
V3Pd2Rh3,70.8524,54.6024,-16.25
Pa(TaGe)2,31.5258,35.0417,3.5158
PrTh,30.7045,35.4243,4.7198
Sc2GaAgS,28.5514,25.4835,-3.0679
Tb5Pr2Y5,16.5814,17.968,1.3866
Pr5Sm2Y5,9.2278,10.1283,0.9005
ThBrCl,9.9113,15.6993,5.788
NaSr2BeN2,18.7212,15.7303,-2.9909
Cs2Cd2Ni,18.9312,18.5841,-0.347
CeSb,34.0353,33.5208,-0.5145
Y2InRhF,25.5445,21.7864,-3.7582
Sr3HfI,41.8966,33.2336,-8.663
Pr8Dy2Y3,6.5299,6.7517,0.2218
Dy2CuSi,19.6913,19.911,0.2197
V3Re2Mo3,56.9339,49.372,-7.5619
Sc2BeW,18.5591,18.1366,-0.4225
Sc4BiPbS,24.9742,24.9146,-0.0596
Zr4GaP,64.3815,53.9012,-10.4803
AlInBr,11.7919,12.9647,1.1728
Pm4Te2PPt,33.1805,31.1527,-2.0279
TiPPb3,34.1544,34.7762,0.6219
K2BaBrCl,8.1878,7.1906,-0.9972
Ac3Fe5S12,24.3723,17.3274,-7.0448
AsPBr2Cl,15.5462,13.7772,-1.769
Ta4AlNi,16.134,21.434,5.3
ZrTiSe3,43.472,34.7665,-8.7055
RbOs2I,29.4245,30.2581,0.8336