Formula,E_hull_DFT (eV/atom),E_hull_ML (eV/atom),Delta (ML - DFT)
Sr4CrSb,19.8075,17.2111,-2.5964
Ce4InCo,14.95,18.3577,3.4077
Pu3Ni2(As2Rh)2,39.5419,35.3955,-4.1464
ScTl2In,29.5245,31.3572,1.8327
CaCuSnCl5,13.0021,12.5233,-0.4788
Li2PrYTe4,21.3997,21.5293,0.1296
HoNbNi10,19.1419,18.7857,-0.3562
Sc2Tl2B,18.481,21.3627,2.8817
HfBi2IrRu,67.5097,56.3012,-11.2086
NaZrNi3,29.3506,25.6928,-3.6578
La4Y2Pb3O2,48.3128,41.0214,-7.2914
TiCrC2,49.1557,40.0655,-9.0902
CuSiAg4,25.6614,19.787,-5.8744
Zn2BiW2,29.9965,32.8679,2.8714
TaIn4Cu,21.8591,22.7015,0.8425
U8NiIrOs2,56.7068,59.6785,2.9717
CoIrN2,59.6701,55.5137,-4.1564
CaSmAg3,21.6206,18.5741,-3.0465
Ca3ZnHg,3.4992,4.3865,0.8873
AlCoBr,23.7274,16.3271,-7.4003
LaUNi10,14.939,15.286,0.347
CaVGeO5,20.4102,18.3814,-2.0288
YZrCuS3,49.1106,36.8566,-12.254
TaTeMo,34.7585,34.8579,0.0994
Hf4CuIr,103.7946,77.1452,-26.6494
CoIr2N,78.8765,72.9617,-5.9147
Tb3NiSn3Ir2,27.9722,28.3523,0.3801
NaY2(CuS2)2,42.8467,31.3394,-11.5073
Zn2InSbP,17.5826,16.0689,-1.5137
Mg(ScP)2,31.8651,24.0408,-7.8243
Zr(NiRu)2,20.9035,22.7151,1.8116
Cr2ReBi,21.5399,24.0414,2.5015
YSe,29.3253,27.4027,-1.9226
Sr(HfZr)2,92.3307,71.4636,-20.8671
LiSc2Au,10.1844,14.3285,4.1441
Sr(ZrAg)2,49.9494,42.2582,-7.6911
Ba2NiF,4.1207,1.9408,-2.1799
CuIrI4,23.667,25.2453,1.5782
Hf4InCu,100.1012,73.1318,-26.9694
Pm4InCu,16.2626,19.3356,3.073
ZnCdGa3,10.9723,11.5873,0.615
SrCaIn3,17.4443,16.8338,-0.6106
BeCoB,10.9366,8.3246,-2.612
SrIn2Ge,12.3617,14.5956,2.2339
CaZrSc2Rh,37.9003,27.5407,-10.3597
NaLi(PrTe2)2,21.7002,21.4854,-0.2148
SrCaIn,14.8612,14.1027,-0.7585
SrCrMo4,15.9414,16.9676,1.0262
SrInGe2,9.6315,12.6582,3.0267
Ta4CuP,30.0451,30.5884,0.5433
InSiBr3,14.0753,12.8149,-1.2604
In2SiBr,16.7294,15.6857,-1.0438
PaBMo,27.7617,32.326,4.5644
BaMn2Cu,52.8109,40.3052,-12.5057
BaMn2Cu,52.5989,40.3052,-12.2937
InSi3Br,16.4331,12.0302,-4.4029
MnP2Pb,39.8743,35.1453,-4.729
SrMnAg,48.5878,38.5856,-10.0022
LiPu(NiO2)2,18.4291,18.9807,0.5516
LiNi2SeO4,11.3153,11.5631,0.2479
CuSiW4,30.7668,33.2891,2.5223
Mn2PPb,63.876,52.8354,-11.0406
CaTcW4,42.433,43.7697,1.3367
CuMoPt4,70.9062,49.657,-21.2492
BMo2I,14.6196,17.5486,2.929
YErHf2N4,53.7516,42.7682,-10.9834
CaTl4Tc,50.7668,48.5595,-2.2073
MnAgSb2,55.3375,42.5872,-12.7503
Sr2Zn(BrO)2,16.9401,13.2997,-3.6404
K2CaIr,26.3288,19.9096,-6.4192
TbY4CuS8,40.6801,31.5006,-9.1796
Sr3CaCu,11.9891,11.4129,-0.5762
YNbSe2N,73.1227,59.5579,-13.5648
YNbSe2N,71.815,59.5579,-12.2571
Ba(CrP)2,42.2795,34.3482,-7.9314
Y2GaSbS,28.1826,23.3473,-4.8353
Na3SnC,32.4193,24.9518,-7.4675
CuPt4Rh,63.0692,44.7473,-18.3219
Th4CuRe,43.9796,47.991,4.0114
Zr5Ta3(Ni4As3)4,34.8886,27.7294,-7.1591
Tm5Ta3(Ni4As3)4,25.3953,20.9354,-4.4598
Ba2Pa3RuO12,11.3845,14.7954,3.4109
CuRh4W,40.1928,32.31,-7.8828
HfPbSeBr2,58.9683,44.9564,-14.012
YTm(MoN3)2,12.8492,12.0378,-0.8114
CrSb,7.3799,5.6853,-1.6946
NaHfSe2,65.4467,49.1594,-16.2873
Ce2PrTi,12.8888,16.1634,3.2746
HfMo2PbSe,56.3421,46.4365,-9.9056
BiRh3Se,50.2846,39.8456,-10.4391
PaCdBi3,50.0862,51.8137,1.7275
RuIO,25.5831,21.9322,-3.6509
LaScGaRh,28.0015,22.1807,-5.8208
Ta2Cr,50.29,43.7216,-6.5685
BeCu4Pt,22.3438,17.3653,-4.9786
BeCu4Ir,14.8104,15.1669,0.3566
Cs2SnAuF6,16.8823,16.2322,-0.6501
Tm4CuSb,23.9151,25.2183,1.3032
La3Ce3Ni,29.7557,23.6769,-6.0789
SbAu3I,42.9303,41.015,-1.9152
RbCoC2,37.4962,25.7669,-11.7293
FeRe2Ir,42.0667,41.6214,-0.4453
TaIn,21.5627,28.403,6.8403
Lu2OsRu,30.9323,34.4562,3.5239
Ba3Cr2WO9,0.0,0.9546,0.9546
Co2PPt,27.7319,20.0948,-7.6371
LiNdGa3,6.0502,9.0211,2.9709
Y11Hg9Pt4,37.3414,26.2224,-11.1191
Co2PPt,33.928,20.0948,-13.8332
Rb2InF6,6.5207,6.8903,0.3696
Tm3Ga,24.8889,27.0215,2.1326
Y3GaAg3S8,38.9947,29.3388,-9.6559
Tb2ErCu2,14.4779,18.104,3.6261
YGaPbS2,38.1788,31.9335,-6.2453
KRb2Tl,15.4652,15.7308,0.2656
FeNi3Pb,33.8507,28.6135,-5.2372
La2PuN3,28.3528,24.925,-3.4278
Sr4Si2As,28.4831,20.4359,-8.0473
Zn4CuIr,12.8824,12.8452,-0.0373
SmPaNi10,12.5144,14.5113,1.9969
CdHgPb3,28.0796,30.7593,2.6797
Tb13Ho3,26.9282,28.3487,1.4205
KNi2Pd,7.4038,9.4594,2.0556
MnCd2Te,41.8994,37.0079,-4.8914
Y2ErZr3N6,46.3514,39.9083,-6.4431
Sm2ThNi9,7.7933,11.5761,3.7828
Pr6Pd5Rh,8.4546,8.9977,0.5431
Sm(Ni2Ge)2,8.5705,8.2244,-0.3462
SnAuSe3,38.7035,34.4743,-4.2291
NaPPdCl2,12.4891,11.4539,-1.0352
TbY(ErAs2)2,15.8908,18.6718,2.781
Zr4CuIr,73.5175,63.568,-9.9494
LaCrI,23.3011,21.3755,-1.9256
Zr4CuRu,69.4881,59.5405,-9.9477
CuAgAu4,37.9015,37.9588,0.0574
Ce2Cu3NiGe4,13.0346,13.0948,0.0602
HfZrCu4,45.0571,36.3491,-8.708
Zr4CuRe,73.2036,63.7252,-9.4784
KCdSn4,18.9447,19.8402,0.8955
SrHf2Pt,97.7908,70.4635,-27.3272
Rb4YEr3Te8,26.5335,26.0247,-0.5088
PaSN,30.7483,35.5032,4.7549
Tb2Ni2Ge5Pd,10.2694,10.9392,0.6697
TbYZrSc,36.1464,34.4157,-1.7308
Tl2CoPt,49.9323,43.6274,-6.305
Pr12Er5Tl2,10.0652,11.3275,1.2623
RbZnPt,32.8536,24.0223,-8.8313
PmYAlSn,30.3099,27.2143,-3.0956
PrTm5Tl4,34.9848,37.1774,2.1927
NaLaBe3,16.8777,12.6101,-4.2675
Tm3In3Ni2Rh,23.9102,23.2216,-0.6886
Sr2ZrRu,36.0589,33.0904,-2.9685
CeSc(GeO4)2,24.2885,22.3442,-1.9443
ReSn3C,42.3693,37.3069,-5.0624
ReSnO2,63.1756,53.0077,-10.1679
SrZrRu2,36.2379,34.8432,-1.3947
LaCuSb,28.4696,22.7633,-5.7063
CeYZnIn,18.3802,18.7118,0.3316
NaTeW2S,42.0216,38.0639,-3.9577
RbLa2PbO5,22.8501,22.6694,-0.1807
V6PbO15,36.8511,30.2835,-6.5675
La2CuSb,38.1739,28.6422,-9.5317
Pm2Pr4Sm,7.9284,11.0751,3.1467
LaCu2Sb,27.3083,21.6537,-5.6546
Hf3CdSn,87.6208,64.0884,-23.5324
NaBeInAu3,27.7857,28.6054,0.8197
Ce3Pr3YSe8,29.4067,25.3134,-4.0934
YCoN2F,72.292,60.9797,-11.3123
Pm(Pr2Ir)2,12.9308,16.0964,3.1656
Ti2RuAu,24.1583,21.9045,-2.2538
Ce5CoPb3,26.9724,28.8246,1.8522
Pu3Co3As4,23.2544,23.2374,-0.017
Tm2Zr2Bi2H,51.9142,49.0847,-2.8295
Sc(CoTc)2,70.6577,59.7553,-10.9024
TmB2Mo,11.6511,15.9357,4.2846
Na2PrMnSe4,41.6018,35.6511,-5.9507
AcSc(IO4)2,41.5457,37.0431,-4.5026
LiInCo3,9.4834,10.2376,0.7541
PrY3(ErSe3)2,30.5667,26.7749,-3.7919
HoSc2US4,49.6398,43.8063,-5.8335
K(SbPd)3,24.8253,20.325,-4.5004
Nb2AsP,73.9964,63.1054,-10.8909
PrFe2P,26.1817,22.0044,-4.1773
La2Ga4CoGe2,17.4043,14.7514,-2.6528
ZnCo2Ir,22.8017,20.8361,-1.9656
CoNi5Pt2,30.1572,23.0525,-7.1047
Sm7Co2Ge5,0.0,4.4089,4.4089
LuNbSb,52.2706,47.7101,-4.5606
LaTb(ScS2)2,47.105,39.0507,-8.0543
CaOs,24.1202,27.3142,3.194
GaCoH5,0.0,1.358,1.358
ScTi3Cd,9.3533,10.7449,1.3916
Ta2SiP,26.7328,28.8221,2.0893
NaHfSe2,64.9464,49.1594,-15.787
K2CrSe,20.3858,17.1861,-3.1997
CeHo5Zn4,19.4418,21.6104,2.1685
ZrTlH,44.6358,42.1935,-2.4423
NpCuSb,33.4113,33.157,-0.2543
Na2SrI4,17.7255,18.324,0.5985
YMnIn,46.0663,38.5294,-7.5369
Fe2CoRu,33.6192,23.9867,-9.6325
LiZrHgBr6,21.7097,19.0243,-2.6854
Zr4CuIr,74.3692,63.568,-10.8012
Sc2Fe2Hg,29.3873,27.3282,-2.0591
CrPb5,45.7707,45.9083,0.1376
Ba4Co(ReO6)2,11.2611,10.8178,-0.4433
Ba2La(IrO4)3,12.7448,14.7464,2.0016
ErPuTh4,61.0006,64.5548,3.5542
Ac8Co3OsBr4,42.606,41.6084,-0.9976
SrMnI3,35.9365,31.2801,-4.6564
YZnS2N,49.4501,38.6052,-10.8449
La6Sn3H,31.5128,22.393,-9.1199
TaCo2Ni,45.0401,34.8403,-10.1998
Ti6FeSn2H,14.8803,11.2969,-3.5834
SrRe2Cl,33.2208,33.9989,0.778
SrReCl3,19.7232,19.1243,-0.5989
SrReCl2,24.0143,23.5159,-0.4983
Sc2FeHg,23.6643,23.1158,-0.5485
Rb2YAsF6,15.7618,14.2724,-1.4893
AlBMo3,24.1069,18.3582,-5.7487
Na2MnO3,37.183,36.0536,-1.1293
Na2GdMnAs2O9,2.7687,3.3926,0.6239
ZrScReRh,69.4971,54.7444,-14.7527
HfZrSeI2,68.2378,53.5565,-14.6813
HfPbSeN2,49.201,39.3914,-9.8096
BaHf3(AuO3)4,29.9846,24.9923,-4.9923
In2Bi,31.5019,32.8314,1.3295
Sm2SiSb,26.6375,24.8215,-1.816
AlCd2FeHg,13.8184,12.419,-1.3994
Ac4Sb2As,50.419,48.486,-1.933
AcSb4As,42.2518,35.7725,-6.4793
Gd4(CoB2)3,16.378,15.7503,-0.6277
FeReAu,44.3974,40.6191,-3.7783
PrHo2Zr,37.8571,36.2059,-1.6512
PdRhI2N,30.8221,25.3545,-5.4676
In6Bi2Pb,31.2405,32.3394,1.0989
AcSb2As,40.6979,36.7306,-3.9672
Nd(ZnH4)2,3.7296,5.1675,1.4379
Zr(CoGe)6,7.9229,9.8768,1.954
Hf2Co3Cu4,57.6731,42.2166,-15.4565
YbZn4Cd,13.94,15.0047,1.0647
In4BiPb2,34.5107,35.1412,0.6305
Ce3CdIn,18.1092,22.4854,4.3762
FeCoRu4,24.2804,21.7774,-2.5031
K2TaCr,44.24,32.0659,-12.1741
Li2Y(ErPb)2,25.2236,27.4866,2.263
CeTlAu3,39.0628,41.8711,2.8083
Co2CuRe2,24.3926,25.8947,1.5021
CeHfSe2N,44.2071,34.6076,-9.5995
LiYErPb,23.7974,26.2285,2.4311
SiPbAu2,40.894,40.3851,-0.5089
CsNi2C,19.954,17.5185,-2.4354
Sr4H3N,12.5071,13.3357,0.8285
SiPb2Au,42.1952,41.8525,-0.3427
K2TaCr,44.1612,32.0659,-12.0953
ZrSc2Ge,41.5587,33.7902,-7.7685
K2TaCr,44.2446,32.0659,-12.1787
PuThSb,60.5184,59.3727,-1.1457
AlBMo3,21.9269,18.3582,-3.5687
SmAgF4,6.9697,8.3138,1.3441
TlAsPtBr2,36.8845,30.5571,-6.3273
LaBeCd4,22.1921,19.788,-2.4041
InAs2Br,12.6527,15.2059,2.5532
SmEr2(PaP2)3,24.1684,26.5989,2.4305
CeNdTh3,43.0357,50.509,7.4733
Tb5Co8Sn15,17.253,18.6506,1.3976
YCoAsC2,48.087,35.1947,-12.8923
Pr3NdSmEr,6.0776,9.0883,3.0108
CePmHg3,6.7156,9.7366,3.021
NiAsPd2,22.3427,20.2895,-2.0531
Y2CoAs,29.7059,26.348,-3.3579
Y3Er(ScBi3)2,33.2667,35.0847,1.818
SrH6Pt,12.5692,9.4051,-3.1641
KCo2Se3,23.1024,21.9974,-1.105
CeSmAu3,32.8226,36.4152,3.5926
La2Pt2Br,58.3333,40.7086,-17.6247
PaTiN3,4.2395,7.9261,3.6866
MgCuAs4,11.8619,10.4656,-1.3963
CaTlPb4,44.2593,45.1275,0.8682
Pu4Hg2N,41.5684,42.5012,0.9328
LiSnHg4,4.9078,5.1451,0.2373
Ce3DyPu,12.8802,20.1249,7.2448
CeEr3Tm,15.0262,22.0395,7.0133
NaLiBe2,6.707,5.5058,-1.2012
Tl(CoTe2)4,31.6802,31.0444,-0.6358
BaCaSb4,31.3388,24.0455,-7.2934
Ca(CoH2)6,4.4384,4.0185,-0.4199
CePm3Dy,10.7714,16.782,6.0106
Ta2CrCu,40.4951,34.4167,-6.0785
MgCuAs,9.0775,7.4032,-1.6743
Ca(CoH2)6,4.4563,4.0185,-0.4377
Ac2ScNbO8,42.1777,38.9964,-3.1813
Cs4La6CoBr14,17.9934,13.4441,-4.5493
MgCu2As,11.369,9.9716,-1.3974
CeY2ErSe6,35.3017,31.3949,-3.9068
SiH7(IrOs)2,15.7668,17.3627,1.5959
GaSbO2,37.5052,34.1903,-3.3149
VH5Os,19.3734,18.7687,-0.6047
TmAgF4,13.4864,14.4836,0.9972
CeNd3Sm,10.4543,16.5598,6.1056
CaLaSb4,40.0119,29.9122,-10.0997
K3SbBr6,13.7814,13.5458,-0.2355
Pr2Dy4Sn3O2,30.5769,27.6567,-2.9202
CePrEr3,16.9124,19.7053,2.793
RbAsF4,19.3208,17.9058,-1.4151
Nd3VO6,9.8644,10.5878,0.7234
PrInBi2,26.3645,29.2136,2.8491
ZnSbW,30.6801,29.6168,-1.0633
Rb2V2Si8O21,2.0872,0.3688,-1.7184
Co2ReTc,36.3377,35.6377,-0.7
ErH5Ru,6.4247,7.795,1.3703
Rb2V(MoO4)3,20.2422,18.6021,-1.6401
RbV(IO4)2,20.8785,15.8872,-4.9912
Tm3MgAl3Ge2,21.9472,20.3643,-1.5829
HfVClO4,30.0389,22.552,-7.4869
NaSrTa2,31.5903,27.6215,-3.9688
Na3Pr(TeSe3)2,36.1017,30.1035,-5.9981
SnBiF2,25.1718,25.3963,0.2245
Sn(SbTe)2,35.4219,30.8348,-4.5871
AcPrCo2,17.9312,22.3939,4.4628
LaPtBr3,36.3923,26.6308,-9.7615
KWCl2,14.7192,15.5738,0.8545
Na(LiOs)2,17.2357,20.6715,3.4358
In(IrPt)2,50.9726,43.9427,-7.0299
YSiBr,33.2673,27.8986,-5.3688
TaCr2Ag,40.3273,29.7455,-10.5818
Dy3VO6,10.4668,12.2948,1.828
Hf2GaCo4Sn,42.2144,34.2243,-7.9901
SiNiP2,15.1369,13.7587,-1.3782
TlRe2Sn,32.9732,37.5894,4.6162
PmScAgRh,28.5821,23.5812,-5.0009
Na4ReN3,43.2465,39.0564,-4.1902
CaCdF4,7.1591,8.9801,1.821
RbSrNb,43.0104,38.5139,-4.4965
ZrReOs2,55.6153,56.2014,0.586
Tm6Co20As13,19.6556,15.6053,-4.0503
Fe(HRu)3,10.7307,9.7865,-0.9442
YEr2Ag,11.6341,14.6445,3.0104
Cd2Ag8Sn3,27.1187,22.6345,-4.4843
Nd2NiPt,35.625,30.9409,-4.6841
LiLaTl4,42.5289,40.523,-2.006
CoNi5Pt12,65.7888,46.3371,-19.4517
Ba2Li(H3Rh)2,9.7965,7.8435,-1.953
DyTh2ScS4,51.9171,46.1974,-5.7197
CaAc2ThSb4,47.1198,43.0393,-4.0805
Y2ErIr,25.202,28.0641,2.8621
ScRe4Hg,42.2307,38.8106,-3.4201
InPbSe,40.1937,38.4557,-1.738
Np(VH3)2,36.3102,30.3524,-5.9578
Li(CoIr)2,13.8627,18.676,4.8133
Nd2H6Ir2Pd,13.6592,15.597,1.9378
Ta2Ga2Sb,53.4555,43.1064,-10.349
BeCoPt4,65.532,45.0348,-20.4973
RhI3,26.9972,24.3055,-2.6917
Co2Sn4Ir,19.7004,22.2498,2.5494
NaCoHg2Se,16.0845,13.6639,-2.4206
InNi3O,15.6285,14.7598,-0.8687
ScCuBr2,24.0928,20.1395,-3.9533
HfCo3I,38.4323,30.0955,-8.3368
ScSi3Br,26.7891,20.0965,-6.6926
CaFe2Os,37.1364,30.7828,-6.3536
Ca2ScV4,78.9924,60.8741,-18.1184
LaDyMgTc,43.6629,36.9776,-6.6853
CeScAgRh,27.1916,23.9164,-3.2752
La4Sc2Sb,38.6641,27.4676,-11.1965
CuSi2Br,15.4999,11.1952,-4.3047
Rb2CrCuSe,15.438,13.5543,-1.8837
VP(H2O3)2,0.0,0.0,0.0
CuSi2Br,15.5524,11.1952,-4.3571
NiB2PO6,3.3054,2.8563,-0.4491
TlAgSn,34.485,32.8446,-1.6404
ScCu2Br,26.1328,20.745,-5.3878
HfNi2B,23.6209,20.6284,-2.9925
Rb2SnRhBr6,13.342,12.1139,-1.2281
CaGdSb,19.9319,17.9922,-1.9396
PmSc(SbO4)2,40.2848,36.1638,-4.121
Tl5H3F2,26.822,28.1634,1.3414
InNi2Br,7.646,9.7992,2.1531
Cs5HAu2F,21.7783,22.7408,0.9625
InAu,33.6255,35.9795,2.354
La2PrTm,32.4125,25.9199,-6.4926
PrLuCd4,17.3467,19.0244,1.6776
BC,53.4394,44.3654,-9.0741
Na3MnIn,40.3571,35.3343,-5.0229
SnOsW2,90.2099,76.3896,-13.8203
Zr2Ti2Bi2H,47.1697,42.0684,-5.1013
Sr2Hf2Ge2H,47.3671,36.7963,-10.5708
YHgOs2,27.3707,29.4482,2.0774
LiPrNdO2,19.4556,19.7116,0.256
Ta2SbPt,51.8562,45.1953,-6.6609
VCuI2,45.939,39.1228,-6.8162
Cs2NiTeBr6,15.7657,15.9687,0.2029
Cs2Te2I,27.5826,28.1553,0.5727
TaRhSe4,45.8618,37.4278,-8.434
SrSc2Bi,15.329,18.4425,3.1135
Sm(YHg4)3,10.532,8.5245,-2.0075
Sm2Tm2Ru3,22.5531,25.25,2.6969
URhSe4,44.7093,39.9562,-4.753
NaNdGdIn,24.4472,25.2598,0.8127
Ca3Pa5N12,0.0,0.0,0.0
Rb2NaSn2,11.7705,12.2252,0.4547
Sr2NbAg,47.5116,40.7567,-6.7549
NaPmEr,26.4085,26.6983,0.2898
Cr6Ru2Rh,19.9654,17.1024,-2.863
IrI3Cl,24.9043,25.2149,0.3106
LiFePbO3,23.9948,21.7535,-2.2413
TlOsSeN2,45.7875,38.5484,-7.2391
Pr12Y3Hg,5.1038,3.3937,-1.7102
Cs2TeI,24.9961,25.8362,0.8401
Mn3CrW2,53.7081,47.2824,-6.4257
RbNpSe4,37.7507,33.961,-3.7897
K3Hg5Au2,11.3591,11.5793,0.2202
RbGaSe2N,29.1958,24.4785,-4.7172
Al2TlV,42.8338,38.2879,-4.5459
HfSbSe4,57.4278,45.0449,-12.3829
Al2HgPb,12.3587,15.1856,2.8269
Pr3YHg12,1.7054,1.6088,-0.0966
Ni2AgPb,24.5357,25.6495,1.1138
TbCe3Th2N6,18.2974,20.8921,2.5947
KZr2Ni,54.6551,46.5136,-8.1415
CeErBi,36.0643,38.5771,2.5128
SbMoSe2,39.5239,33.2759,-6.248
Sb2MoSe,38.5799,31.8221,-6.7578
Np(CoB3)2,9.1667,12.2,3.0334
LiNdPN3,8.0765,9.4755,1.399
SrReAs,33.0098,26.3104,-6.6995
Y3NiHg,64.3383,52.2631,-12.0752
Dy2OsPb,36.8966,40.6214,3.7248
Tb11Sm4Sc9,18.3362,20.0182,1.6821
K2AgBi2,29.8925,29.2517,-0.6408
RbTi2H2F11,0.0,0.0,0.0
La2TcSb,59.9857,45.87,-14.1156
Tb11Er4Sc9,19.0782,20.7045,1.6263
Tb11Dy4Sc9,18.7292,20.4039,1.6747
Li12YHg6,5.3048,4.1384,-1.1664
Y(HgI3)2,17.7772,17.805,0.0278
NdYHg2,18.2331,16.4944,-1.7388
Ge2SbSe2,28.0543,23.003,-5.0513
CaErAg,21.9462,20.7209,-1.2253
Sc2BeAg,13.5882,12.0323,-1.5559
SrZnB2,12.0676,10.5141,-1.5535
SrRe2As,34.3428,30.9194,-3.4234
BaGeSe2,25.7619,22.8488,-2.9131
Cr2AsBr,24.7872,21.3318,-3.4554
BaLaSb2,34.4934,27.1131,-7.3802
YTaHg2B,48.0354,40.7233,-7.3121
BaLaSb,31.6034,23.5809,-8.0225
LiTlNi,19.2903,21.2426,1.9524
Na2Cd2Pb,27.9069,26.5129,-1.394
NaMnAs2Br,33.0485,29.9693,-3.0792
NbCr3Os4,42.0183,40.914,-1.1042
Sr(ReAs)2,29.2121,26.4394,-2.7727
Cs2WNCl6,15.2418,16.166,0.9242
Nd2ErAu2,34.0417,36.5355,2.4938
SrRe2As,34.78,30.9194,-3.8606
Th3(CoP)4,31.3157,27.3524,-3.9632
Os2RhI,34.2638,33.9695,-0.2943
Ba2Sb2Se,22.5783,18.8562,-3.722
Sr2ReAs,32.6304,24.394,-8.2364
Ni3IBr,11.4721,12.5223,1.0502
Sr2ReAs,28.0317,24.394,-3.6376
ScMnAu3,49.5804,45.5322,-4.0482
Nd6Tl2NF,24.9509,26.981,2.0302
ScMnAu2,44.3206,40.9471,-3.3735
Ac2DyLu,47.5876,50.3065,2.719
LaZn2Sb,24.4639,19.8742,-4.5897
AcTb(SiPt)2,48.863,38.8784,-9.9846
FeRePb,46.2476,41.9545,-4.2931
YAg2Hg,25.2281,19.3764,-5.8516
AcThPt2,76.1985,64.4486,-11.7499
Nb2MoBr,78.2148,67.0056,-11.2092
TlPSe2N,43.4241,36.1521,-7.272
YAgHg,26.9408,20.9522,-5.9886
LiEu(WO4)2,16.0922,15.8553,-0.237
Pr2Y(AgHg)2,14.507,11.7356,-2.7714
NaV2ZnFe,66.6262,52.4098,-14.2163
MoOsW3,87.883,74.5881,-13.2948
CsPm2IrO8,8.6776,10.5838,1.9062
YHfAgHg2,45.5889,32.5514,-13.0375
Sc2CuReMo,47.5236,35.8862,-11.6374
CrSb2I,26.5463,22.28,-4.2663
PrLu2In,20.2976,22.4305,2.1329
CsBi3W,45.7652,46.8549,1.0897
BaYAgHg,35.6954,29.1254,-6.5701
Cs2BiW,36.8913,37.5252,0.634
TcAuBr,51.8756,46.8319,-5.0436
NaTc2Au,60.2843,53.1899,-7.0944
CsZr(TlI4)2,33.2008,32.6911,-0.5097
Y3Hg4,21.2593,16.1925,-5.0668
CuOsRh2,36.8522,31.5957,-5.2564
Cs2NaTl4Au3,41.7022,41.7461,0.0439
Y(Ag2Hg)2,24.9965,18.7841,-6.2124
Be2V2Sb,54.5906,43.9881,-10.6025
Sc2InTc,69.2053,58.3005,-10.9048
Li3Sc3SbS8,40.6424,32.4354,-8.207
KRb3Cd,4.3987,4.2002,-0.1985
PrTm3Ir,25.7859,27.7382,1.9523
Y3(Ag2Hg)2,30.4908,22.5042,-7.9866
Pu(CoSi)2,22.1595,21.5043,-0.6552
SrGdTh2,44.0283,47.3613,3.333
BaNa3Zr,35.7762,28.6321,-7.144
Tb3DySc7,13.2647,15.0395,1.7747
NaBi2Se,45.5906,42.9523,-2.6382
Bi2Sb2Au3,48.6707,46.6551,-2.0157
NaTeAs2F,29.96,26.1085,-3.8515
Re2MoCl,30.7346,29.0618,-1.6728
Co3SbTe,22.9714,20.754,-2.2174
BaZr2,60.1073,51.2323,-8.875
Ac(SiPt)2,47.3174,36.2212,-11.0962
GaAsBr2,7.8735,9.0458,1.1724
TbYBeHg,19.1531,17.7633,-1.3898
Co2SiRu,6.9221,7.4449,0.5228
Y2HgCl,51.8313,45.7262,-6.1051
AcSmPt3,64.017,50.6585,-13.3585
Ga2Pb2Br,29.4853,27.6738,-1.8115
YHgCl,52.3945,49.0093,-3.3852
InP2WS,71.2509,60.9344,-10.3165
P2WS2,79.6718,65.6801,-13.9917
Tl2IN2,26.3881,25.9041,-0.484
ZnTcPt,63.3058,49.8271,-13.4787
GaCuBr3,12.5452,11.9541,-0.5911
WSeN2,23.4523,23.3754,-0.0768
CeDy2Pa,37.0432,40.7233,3.6801
NaFe3Tc,31.1854,26.1469,-5.0384
TlSi2Ir,31.5452,29.3478,-2.1973
KCoCuGe2,21.8534,17.7927,-4.0607
Ba2Te,13.048,13.3958,0.3477
BaAlRh2,29.135,19.9556,-9.1794
AlAgPt4,65.3466,46.2719,-19.0747
Y6HgPd12,26.2136,22.1563,-4.0573
Y2Tm(InHg2)3,15.7777,14.1886,-1.5891
Hf2MoBr,72.3041,53.5051,-18.799
Li2CaYHg,12.3841,9.7773,-2.6069
CaHg3Se,27.496,21.0719,-6.4241
Ac3Si2TePt9,70.6791,52.8325,-17.8466
YTlSnHg,31.8573,28.2141,-3.6431
Pa2ZnSn,40.677,43.328,2.651
Li2ScV,30.7829,25.7552,-5.0276
AlAg2Pt,38.7196,28.6997,-10.0199
Ac(SiPt4)2,73.223,52.0705,-21.1525
RbY2TlHg,32.0814,26.0803,-6.0011
PaZnFe,30.2258,29.5938,-0.632
Ti2MoBr,3.7891,7.374,3.5849
YBe2TlHg,20.769,19.0085,-1.7604
Hf4GaCo,98.2121,70.2268,-27.9853
NiHgPd2,10.4314,12.4746,2.0432
MnHgPd6,25.5469,24.0051,-1.5418
KRh3Se2,42.4193,31.6749,-10.7444
TiNbCl2,38.4739,34.0108,-4.463
YSi2HgF,28.8041,23.125,-5.6791
Ac2Si4IrPt3,49.0321,38.9049,-10.1272
GdMnPd4,32.8487,30.8772,-1.9715
NdYHgOs,29.0542,28.4483,-0.6058
NbMoBr3,39.1794,34.09,-5.0894
MoOsBr2,24.7356,23.4525,-1.2831
CuMoCBr2,31.9348,22.6811,-9.2537
AlHg2N,0.5711,1.2661,0.695
AcLaSiPt,54.4213,43.2371,-11.1842
Pm4Nd3ScS8,39.9592,33.5204,-6.4388
BaCo2Si,7.2941,6.1614,-1.1327
SnBiPb2,41.7312,44.0946,2.3633
LaHfTi3,43.2513,32.4437,-10.8076
BaTeC2,37.0912,28.175,-8.9162
ZnMo2Br,7.8962,11.199,3.3028
TaS2Br,40.7626,33.8526,-6.91
Na(PS)2,26.2413,25.3328,-0.9085
BaTeC2,42.6826,28.175,-14.5076
SrGd2Cu,19.7174,22.1153,2.3979
Y2TaSnHg,40.6411,31.7787,-8.8624
U2NO,33.7509,37.6245,3.8736
La3PbO,47.1694,40.3577,-6.8118
Y2CuHgGe,26.2798,20.3848,-5.895
GdYHgPt,41.5393,32.7679,-8.7714
YPaSnHg,35.997,33.4323,-2.5647
SiHg2Pt,25.9326,17.8588,-8.0738
FeIBr2,12.2527,13.0699,0.8173
CrTeAu2,36.6413,36.4187,-0.2226
Pm3Nd4ScS8,39.948,33.2735,-6.6744
CrTeAu2,36.5448,36.4187,-0.1261
CuAgAsS4,39.3016,29.4902,-9.8114
La2Sc2Tc,65.0137,50.0278,-14.9859
Cu(SbAu)2,34.7309,32.0759,-2.655
CrTeAu2,36.5694,36.4187,-0.1506
Nd4Th3ScS8,47.7602,41.0423,-6.718
Be2FeBr,15.7737,11.2658,-4.5079
BeFeBr2,16.0118,12.1421,-3.8697
Ba2SrSe,12.2061,11.672,-0.5341
Ba2NbSn4,31.7992,29.6151,-2.184
YScHgPb,26.63,25.1705,-1.4595
Sc2TiAu2,20.5817,19.355,-1.2267
MgZn4Mo,8.6366,9.8678,1.2312
CrTe2Au,35.2025,34.1296,-1.0729
Ca12P6N,20.9067,16.8776,-4.0291
AcSi2Ni5Pt,23.6824,20.6341,-3.0483
NdTh2ScS4,51.5905,45.4735,-6.1169
Ge3AsP,16.1833,14.4483,-1.735
AcNd(SiPt)2,48.5593,38.6014,-9.9579
Rb3TiBi,14.4024,14.171,-0.2315
GeAsP,14.5139,12.1984,-2.3155
Tc2IrSe,69.4919,60.5165,-8.9754
Tc3MoBr,62.9503,52.5102,-10.4401
ScCoSCl2,28.3741,23.8551,-4.519
CsLi(SO4)2,16.9572,14.0611,-2.8962
Tb4Pm9Y11,20.1236,21.7294,1.6059
ScPdRhPb,34.6828,31.1388,-3.5441
LiMoBr2,14.9671,15.4001,0.433
TcIrSe,62.0282,56.5288,-5.4994
YHgSb2Te,36.618,29.001,-7.6169
BeMo2Rh,24.9075,19.6044,-5.3031
Tm2Zr2Sc3,39.0691,36.7468,-2.3223
La3(PmSc)2,32.6235,25.5112,-7.1123
LiLaYHg,26.6045,19.6865,-6.918
CoSb2TeRu,32.5672,27.7001,-4.8671
AsRuN2,25.1859,23.8833,-1.3025
LiYHgPb,26.5985,24.0992,-2.4993
CsSc3Sb,18.6751,16.6184,-2.0567
ZnSe2BrN,31.937,26.5655,-5.3714
Pr2Sm7Ho3,20.9381,22.9459,2.0078
CsScSb2,31.537,26.6482,-4.8888
CoSbTe2As,33.7309,28.4819,-5.249
TiRu3I,21.7844,20.1343,-1.6502
GdPb6,49.8104,50.5035,0.6931
Na2Sr2Tl,25.2132,24.0565,-1.1567
YAgHg2B,46.7876,37.2804,-9.5071
CaCe2Tm,21.6191,24.261,2.6419
CaTbSc2,17.4673,14.2957,-3.1716