Formula,E_hull_DFT (eV/atom),E_hull_ML (eV/atom),Delta (ML - DFT)
Tm2ThPb,44.7736,47.915,3.1414
Si2TcPd,35.4544,29.1599,-6.2945
YCl3,34.7869,34.6058,-0.1811
GdSiPd,11.0145,12.9766,1.9621
Pr3In3Rh2,17.3091,14.9426,-2.3665
AgSbRh2,43.6578,35.2623,-8.3955
SiOs2Pd,23.6507,26.383,2.7323
HfZrTi4,45.0907,36.3056,-8.7851
AgPt2W,95.423,70.4038,-25.0193
BaGdN2,7.0157,9.8277,2.812
Zn2GeRh2,19.9297,17.0844,-2.8453
Ag2SbRh,39.1864,31.4163,-7.7701
K4V2Se,51.1867,39.6428,-11.5439
Ag(SbRh)2,43.7824,34.1568,-9.6256
TcBF2,24.0439,19.9744,-4.0694
Gd2Si2Pd2C,26.1348,22.8978,-3.237
LiYSi,24.3744,23.022,-1.3524
AgSb2Rh,42.553,34.7385,-7.8144
AcCoSb2,41.1613,37.7619,-3.3994
LiBe2Sb,10.6018,9.1366,-1.4653
SiOsPd3,23.052,22.9319,-0.12
Tb(PrPb)2,19.0584,22.0764,3.018
TiCrTe4,37.7949,34.5412,-3.2537
ZrBF2,21.9378,21.8402,-0.0976
TiCrMo4,20.223,22.6608,2.4377
Rb2NaPuO5,10.8654,11.8997,1.0344
Sr2Pd15Au2,20.1924,21.433,1.2406
DyBRu3,22.2886,18.5638,-3.7248
YCl2,53.145,50.4028,-2.7422
Li2ZrTc,48.3162,41.1994,-7.1168
Lu3Sc,26.4853,28.8119,2.3266
YCl2,53.7049,50.4028,-3.3021
Ba3ZnSe,10.8782,9.0457,-1.8325
Ba2LaTl6,39.4914,39.029,-0.4625
Y3(AgIr)2,27.0921,26.7951,-0.2971
NaCe2Pb,31.85,32.7675,0.9175
SiNi2Pd,11.2231,11.631,0.4079
BaTe2Mo,21.9519,20.9215,-1.0304
Zn2SbBr,25.942,23.5577,-2.3843
Th3TiN6,10.1987,14.4462,4.2475
MoPb3C,48.3741,45.0568,-3.3173
Ba2NaRhO5,7.1642,6.1123,-1.0519
ZnSb2Br,35.2342,30.9154,-4.3189
Zn3SbBr,22.1965,20.45,-1.7466
Ag3PtW,72.6567,53.6698,-18.9869
YCl3,40.8897,34.6058,-6.284
Rb3TaOs,19.4216,18.9151,-0.5065
SbRhSe2,43.0518,34.0892,-8.9626
TiCuSn4,31.989,26.0637,-5.9253
RbTa3Os,34.2108,36.1017,1.8909
ZnSbBr,29.014,26.42,-2.594
AgPt2W,95.5666,70.4038,-25.1629
GePb3C,47.2183,43.1744,-4.0438
Zr4TiCu,68.8616,58.9576,-9.904
In2Cu2Ir,15.1543,18.0298,2.8755
In(SnPd)2,19.0471,16.9635,-2.0836
In2CuIr2,21.4598,25.509,4.0492
DyTiAu4,40.5239,38.2934,-2.2306
InCu3Ir,17.5712,18.9536,1.3824
CdCoSn3,17.6168,18.8171,1.2003
Ac2LaPd2,37.2613,36.9449,-0.3164
Ge2PbC2,39.724,31.9505,-7.7736
KZnBi,24.6532,25.1951,0.5419
ZrMoC2,59.132,47.1763,-11.9557
BiCI2N,44.4179,39.7186,-4.6992
Pu2AlCr(BPd2)2,15.145,17.3873,2.2423
ZrMoC2,59.0555,47.1763,-11.8792
Nd2ThPd2,24.0659,27.1803,3.1144
SrRe2Tc,55.5031,47.9197,-7.5834
Hf4TiIn,99.9522,72.4454,-27.5067
Cd(CoSn)2,14.8878,16.3854,1.4977
TiMnNi4,40.8382,36.8674,-3.9708
CdCoSn,15.4694,17.3395,1.8701
Ca3FeSb,25.593,20.1883,-5.4048
AsW3I,33.2446,34.1318,0.8872
Y3ZrF,34.317,30.8029,-3.5141
Nd(ThPd)2,31.2951,35.4943,4.1991
Pr3(BC)4,122.6696,107.4226,-15.247
ZrMoC2,59.1529,47.1763,-11.9766
Sm2Y3Th2,31.9978,34.9144,2.9166
ZrNi3Pb,34.7975,32.3534,-2.4441
Li2AgRu,12.6036,12.1685,-0.4351
TiTe4Mo,32.5857,30.2851,-2.3006
Li2CuPSe4,27.6246,21.9983,-5.6263
CaNd5Y12,17.4988,18.2612,0.7623
LiCuP2,13.476,8.6435,-4.8325
LiHfP3,35.6548,26.7127,-8.9421
Ca3(NbN3)2,26.7139,22.1553,-4.5585
Pm(TmPd)2,18.083,21.5018,3.4188
Si(PbAu)2,39.241,39.1859,-0.0552
CaY12Tm5,19.1798,19.9259,0.7461
U6MnSb2,66.8858,65.2227,-1.663
TiCuNi4,8.5457,9.4101,0.8644
Pr2ErPd2,6.1846,7.6848,1.5002
Pr(SmPd)2,9.9527,13.3098,3.3571
RbWSe3,41.4285,31.109,-10.3195
SrTbPb2,35.8871,37.7457,1.8586
PmPu2Sb,53.3547,53.3154,-0.0393
NaZn2In2Au5,28.7776,29.7154,0.9378
ZnTeSe,32.589,28.8503,-3.7387
Pa2Pd2Pt,51.3361,48.4715,-2.8646
Co2SnRu,6.5209,10.9396,4.4187
Cs(In3Ge)2,18.0114,18.6559,0.6445
YScTl,23.0488,25.7363,2.6875
Cu2SiMo,23.7989,16.2695,-7.5294
GaFe2Si,7.6765,5.4717,-2.2048
HfAgRu3,47.6387,37.9428,-9.6959
BaHfRu2,44.4401,35.9692,-8.4709
Cu2SiMo,23.5733,16.2695,-7.3038
Pm2Sb3AsRh4,38.2452,31.0486,-7.1966
CaY2F8,9.4726,10.4048,0.9322
YWSe,47.1398,33.4333,-13.7065
ReTcN2,87.3857,78.6935,-8.6922
Pr2ThPt2,39.7563,32.5939,-7.1623
UVTe4,60.5691,54.5526,-6.0165
Cu2SiMo,23.6979,16.2695,-7.4284
Ac(TbPr)2,22.0134,24.2746,2.2611
VReTe4,56.0117,49.5568,-6.4549
PmRuRh2,48.5694,38.4939,-10.0755
GePtAu,48.7932,42.0834,-6.7098
Ge2PtAu,34.1575,30.8627,-3.2949
CsIn2Ge,18.2661,19.6869,1.4208
Rb(ScGe)2,20.6791,14.6741,-6.0051
Rb3PdRu,27.5837,23.5843,-3.9993
Tb2GdN,20.1548,23.4451,3.2903
V4ReOs,99.1191,81.6396,-17.4795
CaHfTc,58.3547,48.3026,-10.0521
CaTePd,7.1394,10.7515,3.6121
GePtPb3,51.6316,47.0853,-4.5463
LaZr2Fe,62.4522,52.1991,-10.2531
CaTePd,16.2168,10.7515,-5.4653
VFe4Ni,37.3125,29.3684,-7.9441
Re2TcMo,50.2431,47.2022,-3.0409
Li2LaRu,17.2425,15.2582,-1.9842
ZnNi2Ru,9.0979,12.0153,2.9174
Ca2YF,13.3352,13.2732,-0.0619
ReTc2Mo,63.4484,57.0039,-6.4445
Ca(TePd)2,24.3078,24.3973,0.0896
Er2PuScSe4,39.4467,35.7454,-3.7013
Er4ScAs5,20.9259,20.9352,0.0093
TaOsSe2,37.2394,41.0612,3.8218
YZr4,82.7119,69.9279,-12.784
Pr6Pt2C,16.7935,10.5138,-6.2797
NbSi3Pd,42.1373,32.0733,-10.064
CaYOF2,26.8277,24.2208,-2.6068
DyBRu,20.3648,18.6522,-1.7127
Y2Zr3,57.0886,51.1753,-5.9133
Nb2Si4Pd,52.3569,40.1539,-12.203
PrY(HoS2)2,35.0103,28.2283,-6.782
KBa2TaSe5,30.8408,26.0134,-4.8274
Y2Zr,42.2155,39.4272,-2.7882
NaYZr,40.6234,36.778,-3.8454
Li2TaHg,12.1376,12.9919,0.8542
VZn2Pb,46.3045,42.8937,-3.4109
NaY2Zr,38.0608,34.6629,-3.3979
BeCd2Rh,22.5609,19.4122,-3.1487
Sr(ZrZn)2,40.9638,37.5726,-3.3912
BeCd2Rh,22.9103,19.4122,-3.4981
BaNa2Rh,22.0591,17.4972,-4.5619
Rb3TlIn8,17.8853,18.0595,0.1742
KRb2Ba,4.0674,3.5217,-0.5457
Cu2ReSi,18.1467,18.7524,0.6057
Tb6PrEr12,26.8513,27.7826,0.9314
BeCd2Rh,22.821,19.4122,-3.4088
YZr2,70.2153,61.4341,-8.7812
Er2Rh6C,45.341,34.6342,-10.7067
La2YCuAg,41.5964,30.676,-10.9205
KAl3Si,17.1143,14.3707,-2.7436
PrNdSnO,32.3137,29.2927,-3.0209
YHf(BC)6,66.1289,49.0668,-17.0621
Cu2SiW,17.9777,18.3407,0.363
SrBiSe2,54.506,48.1051,-6.401
MnI3,39.3986,34.3786,-5.02
Sr2In2Ir,21.7326,20.3093,-1.4233
PdRuSe3,36.7075,30.973,-5.7345
La(SmBi)2,41.6184,40.6507,-0.9677
TbHo2Hf,57.0959,48.8755,-8.2204
Cu2SiRu,15.2384,12.964,-2.2744
PrHoOs,21.6456,25.231,3.5854
VTe4Mo,53.3036,45.2898,-8.0138
PaSnPb2,48.6507,51.3989,2.7482
Rb2BaSb2,15.3076,13.261,-2.0466
AlTeN2F,22.3272,20.4255,-1.9016
Rb2Ga2Pt,19.0002,14.4063,-4.5939
TlInAs2,22.7369,23.943,1.2062
YCoAg2N,61.3055,52.687,-8.6185
Na7Pt,32.7976,25.5933,-7.2042
Pr(DyTm)2,17.8375,21.5124,3.6749
LaY4Ag,22.991,21.9634,-1.0276
KCuP,14.0358,11.4956,-2.5403
KHfTa3,55.1978,47.6608,-7.537
LaZr2Sc,63.4703,53.2417,-10.2287
Rb2TaMo,11.2758,13.9397,2.6639
Cr2GeRu,6.9786,7.0728,0.0942
Cd2InSn2,20.0358,21.1497,1.1139
Y5Zr3,45.6349,40.2761,-5.3588
Li2Ho(ZnSi)2,16.2339,15.6647,-0.5692
Sr4Nb3AgO12,24.3896,20.7406,-3.649
Pm3SmBi4,38.7965,40.9195,2.123
LiSiPb,25.9412,26.1738,0.2327
YAgB2,58.6476,49.7122,-8.9354
Co2TcSb,38.9162,33.6512,-5.265
Cu3Ni,6.6185,8.7886,2.17
InPbW2,38.3659,41.4721,3.1061
Li2Fe(Si2O5)3,17.5562,15.5387,-2.0175
Be2InPb,18.7678,20.5071,1.7393
BeInPb2,31.6221,33.0769,1.4548
Ge2SbAs2,12.7433,12.6543,-0.0891
BeIn2Pb,23.4032,23.5686,0.1654
BeIn2Pb,23.403,23.5686,0.1656
BeInW,24.123,24.5946,0.4716
BPb2F,28.7828,30.4874,1.7046
LaAl4Tc,22.6367,18.1662,-4.4705
ScSe,25.085,22.7483,-2.3367
BeInPb2,31.5964,33.0769,1.4805
BeIn2W,23.1246,23.9622,0.8375
SrLiY2,12.8554,12.5319,-0.3235
BeInPb2,31.6001,33.0769,1.4768
TaOs2Se,42.6665,44.2051,1.5385
BaSrBePt2,43.4583,30.0771,-13.3811
BeInW2,27.5252,29.9493,2.4242
CdNi2Sb,25.8237,21.0813,-4.7424
BeIn2Pb,23.3915,23.5686,0.1771
BaI3,16.2109,17.1926,0.9817
AcNdSm,38.1048,41.0571,2.9523
Ac2TlZn3Pd4,26.7883,28.2215,1.4332
In2PbW,33.2609,35.7879,2.527
Ac2NdSm,44.7206,47.7203,2.9998
Ac(NdSm)6,28.1121,29.0439,0.9318
MnBeTe3,46.2235,39.6074,-6.6161
Tb4InAg5,28.0236,26.0848,-1.9388
Ca2CuW,12.6715,14.0932,1.4217
LaPmY3Er,19.1908,19.3371,0.1463
MnBeTe2,46.0825,40.4596,-5.6229
RbTa2Mo,24.3268,27.1299,2.8031
TaMoI2,25.5436,26.9623,1.4186
NaLi2Zr,31.2237,27.1571,-4.0666
Pr2GdPd,9.065,11.909,2.844
Ac2TlZn4Pd3,25.8543,27.2133,1.3589
NaTa3Se,38.9477,37.5674,-1.3803
RbZr3Ti,64.0937,52.6849,-11.4088
Li2AlSiBr,21.8333,18.5684,-3.2649
BiSe2BrN,33.397,29.7597,-3.6373
SbPCl2,15.783,13.8033,-1.9796
BeCrRu2,10.407,13.7761,3.3691
Pr(NdTh)2,35.3539,38.6175,3.2636
Ac6CuIr2Pt,56.477,55.0677,-1.4092
VCuAs2,33.6113,28.7135,-4.8978
Sr3Ni5I12,9.4444,9.9195,0.4752
InP2Pt,29.3033,24.235,-5.0683
Tb2PrAu2,23.1453,26.2432,3.0979
Fe6Si2C,3.7226,0.994,-2.7286
UPOsN,38.5919,36.4528,-2.1391
La2FeSi,30.2703,22.4301,-7.8402
ZrVP2,57.6879,48.0883,-9.5996
LiInSi,15.3973,14.8021,-0.5951
Sc2WI,13.3331,16.5263,3.1931
Sr2Tl3Cd5,27.6475,26.8253,-0.8222
AsIrSe,54.261,52.0185,-2.2424
TmAg2Sb,34.8062,31.0189,-3.7873
Ba2GeC,14.53,11.7358,-2.7942
ZrCdNi2,36.2275,31.2832,-4.9443
UPa2Fe9,35.1536,30.1941,-4.9595
Rb2HfRu,66.0524,50.1029,-15.9495
Cu2AsPb2,22.026,23.787,1.7611
Lu2OsPd,31.0207,34.4147,3.394
Y(AgN)2,33.1283,27.5556,-5.5727
ScCd2Pb,21.0742,24.3233,3.2492
Th(Cu3Ge)2,13.6695,15.3365,1.6669
BaTcPb3,52.1507,48.5367,-3.614
Y2TlZn2,18.1501,17.9,-0.2501
Pa2PdRu,41.8106,46.0006,4.19
ReSb2Au,44.8855,42.4848,-2.4007
Li2TlSi,21.9953,21.1089,-0.8864
Y2HoThS4,41.7299,35.2037,-6.5262
PaPd2Ru,29.5003,33.0374,3.5371
ScMo2As,24.3797,23.2679,-1.1118
LiCa(SbPd)2,22.788,20.2214,-2.5666
Be2SbBr,18.4912,18.2042,-0.287
Li2TlSi,21.8939,21.1089,-0.785
LiSiBr,21.7237,18.3978,-3.326
Co2TcW,36.8642,35.7462,-1.118
LaTaNi2Se,29.6856,26.4475,-3.2381
ZrRuO2,25.7732,30.4104,4.6372
AsIrSe,53.4851,52.0185,-1.4666
Dy6In2C,28.9807,27.1803,-1.8004
Al2AgMo,18.1508,15.3045,-2.8463
Li2SiW,19.1212,19.237,0.1159
KSiTc2,53.4899,44.2272,-9.2627
ZrRuO3,27.3565,21.6805,-5.676
ZrCoSn2Hg,29.1647,27.0831,-2.0816
Pr3Mg5Ga2,0.8851,1.6363,0.7513
Li2SiW,18.9669,19.237,0.2701
BaNbI2O,51.7415,41.3659,-10.3757
BeSi2,10.9003,8.8443,-2.056
Ba3Ca2NbO8,21.4858,18.8027,-2.6832
Pm2SmHo4,27.0993,28.6854,1.5861
AlPdSeN2,22.8574,19.4835,-3.3739
LaThC,51.9379,43.1368,-8.8011
AcLuPt2,68.2332,57.4999,-10.7334
AcLuInPt,51.2648,47.0893,-4.1755
NaCaY3,19.1484,16.5781,-2.5704
DyNpU2N4,28.3955,30.3056,1.9102
Mn2AlFeN,42.5857,35.2478,-7.3379
LiRe2Si,29.2386,30.5653,1.3266
Tm6In2C,31.1461,29.4192,-1.7269
Tb3Sc,21.2478,23.808,2.5602
PdSeN3,23.3662,19.7393,-3.6269
Ga2TcSe,39.9103,30.5108,-9.3995
Sc2CdPb,20.1484,22.6567,2.5084
K2MoPt,33.6248,26.4801,-7.1448
Al2TlAg2,20.9297,20.2566,-0.673
Sr3NbMo,41.1689,35.2051,-5.9638
YZr,48.7545,45.8194,-2.9351
TaSe3,39.8801,34.0855,-5.7946
Al2TlAg2,24.033,20.2566,-3.7764
AlTlAg2,29.2493,26.6126,-2.6367
Y2AgPd,27.3181,24.6746,-2.6435
Y15In4,10.7862,11.0369,0.2508
RbCa2Sb,12.8905,12.1485,-0.7419
PdSe2I,34.1699,29.7989,-4.371
PdSe2I,34.4903,29.7989,-4.6914
NdZrSc2,33.3713,31.755,-1.6164
Th2TcN,55.9239,54.9452,-0.9786
FeRe2Si,34.5343,30.6765,-3.8579
Zr2SnN,53.8921,48.949,-4.9431
Ca2CeAg6,24.5605,20.861,-3.6996
Sr(Cd3Pb)2,26.9919,26.7148,-0.2771
ScSn2,10.0694,9.2015,-0.8679
Y12HoEr7,20.2906,21.1169,0.8262
LiSiRu,7.2914,9.2943,2.0029
Rb2MoPd,14.2351,10.6845,-3.5506
TmScTlIn,27.5027,28.7868,1.2841
YTm2Ag,26.8292,27.6206,0.7914
Ni3TeBr,15.1955,15.3287,0.1332
BaPb2W,36.5686,38.2986,1.73
FeSiRh,22.5881,17.1152,-5.4729
BaOsW2,94.2905,78.7414,-15.5491
TlSbSeBr2,39.2202,34.9051,-4.3151
Dy7In3N2,20.1875,21.5632,1.3757
OsPbW3,94.7805,82.2287,-12.5518
BaOsW3,86.6588,73.2458,-13.4129
PaAlCo2C,32.3674,28.5089,-3.8586
TaGa2I,40.7024,34.0268,-6.6756
RbBa2Zn,2.4351,3.2063,0.7712
Cu2POs,19.6735,19.8995,0.226
Cs3ScCu,30.498,26.4088,-4.0892
AcPPtRh,43.9436,36.3841,-7.5594
Ni2TeBr,12.4725,14.636,2.1635
SmUN2,23.1493,26.6146,3.4653
Cs2Ge3PbO9,2.8518,3.1412,0.2893
TeSe3,47.3509,38.5123,-8.8386
NiTe2Br,25.2738,25.9798,0.7059
Pm5NdHg3,12.5818,14.832,2.2502
Ac2P4PtRh3,36.994,31.0513,-5.9427
InSiSb2,31.5005,27.0335,-4.467
Ac2Ge3Pt4Rh,55.5776,44.6658,-10.9118
Ac2Sb3PtRh4,54.1869,44.2379,-9.9491
Sr2CeIrO6,20.0467,18.2009,-1.8458
TiCo6,16.4853,15.805,-0.6803
Cs4Sr(SiO3)3,3.4471,3.8935,0.4464
InSiSb2,31.4066,27.0335,-4.3731
KBa,6.1501,6.0673,-0.0828
NaYZr,40.8165,36.778,-4.0385
Ac4Ru2N,57.3901,54.2005,-3.1896
CrTe2Rh,35.8386,31.4768,-4.3618
Ca2PmCu6,9.947,10.0078,0.0608
CsScCu2,27.1815,20.6824,-6.4991
Zr2SbPb,73.2439,64.4589,-8.7851
NiAs2IrBr,24.7932,21.9475,-2.8458
Y2Ga8Rh,12.9552,12.4887,-0.4666
BaTeMo,22.2806,19.7285,-2.5521
CaYZr,46.0305,38.0471,-7.9834
BaTeMo2,22.1387,19.7773,-2.3614
Be2HgTe,10.9531,11.2943,0.3413
Sr(CaGa3)2,8.5087,9.3012,0.7925
TaCrSe,65.2095,48.9382,-16.2713
Ac6Pt2RhS3,64.009,55.2861,-8.7229
Ca2Ga6Rh,11.6778,11.2022,-0.4757
BaTe2Mo,26.6399,20.9215,-5.7184
CaThRh2,41.6172,36.9335,-4.6837
Co2TeW,24.8219,26.038,1.2161
KScSbRh2,34.8507,26.0315,-8.8192
KMn,56.8458,45.5896,-11.2562
Ti2SbMo,17.2625,18.5627,1.3002
NdSm5Bi3,29.8855,32.1538,2.2682
BPd3,7.4524,10.5382,3.0858
ScW2Au,32.5891,36.8923,4.3032
Li3TlSb,19.2002,18.4007,-0.7995
Cs2Bi(BO3)2,11.7951,11.7386,-0.0565
SmScAgRh,27.13,24.2244,-2.9056
AcScRhAu,40.9281,39.5245,-1.4036
Ce3GeN,16.0369,17.6184,1.5815
ZrGaAs2,31.511,29.2678,-2.2433
TlZnCr,24.5923,23.2377,-1.3547
NpCu(HgO3)2,13.1673,13.1993,0.032
Li2MnSi2,29.9111,23.8356,-6.0755
TaFeSi,18.2396,19.3769,1.1373
FeTc2Pb,55.4534,49.4101,-6.0433
La2LuAg,42.2386,35.1737,-7.0649
NdThScNb,59.5836,54.9009,-4.6827
Ca2InPb6,38.2335,39.5825,1.349
Ce3(TlZn)2,27.1209,28.9431,1.8222
Ca2PmI6,17.74,18.9511,1.2112
Rb2InAg2,17.2157,12.641,-4.5747
AsI3,20.4,20.7868,0.3868
Na2(Tl2In)3,37.6873,37.2504,-0.4369
Ca2Nd6Th,25.0819,27.2096,2.1277
Ac4PbN2,37.9194,40.7552,2.8357
Rb2In2Ag,12.8752,11.7997,-1.0754
Sr3(ZnGa)2,10.0431,11.383,1.3399
Fe(GeBr)2,4.9629,6.0768,1.1139
Ca2BiPd6,18.5287,20.0175,1.4888
Y2ZrSi,50.1254,43.5941,-6.5313
Ca2Pd6Pb,18.3127,19.7755,1.4627
Na(TaSe2)2,34.7215,30.0452,-4.6763
Ca2PmPr6,2.8822,2.7918,-0.0905
LiSiOs4,34.6884,35.6159,0.9275
Rb3CaSc,6.7788,3.9075,-2.8713
K2NiTe,18.297,17.1157,-1.1813
LiTaSi4,19.7513,16.0681,-3.6833
Y6Ga3Ru,8.4226,8.9191,0.4966
TaCuRu2,20.0269,17.5809,-2.4461
BaNa2Sr,15.6813,14.2871,-1.3943
Ba2LiAl3Si4,20.8769,16.924,-3.9529
CsGaPO2,28.0117,22.205,-5.8067
AcYGa,29.391,31.4839,2.0929
HfNiTe2,58.673,48.0457,-10.6274
SbPbF2,27.7706,27.9632,0.1926
KCdSi,15.7047,13.8775,-1.8273
NpPaI,45.2943,51.8068,6.5125
NaLiSi2Tc,34.0519,28.1287,-5.9232
Zr2NpTi,70.3227,62.8168,-7.506
LiCaLuSi,18.5417,18.8609,0.3192
TlAgP,28.9771,27.9611,-1.016
LiFeSiRu,30.5681,22.8299,-7.7382
Ta2FeSi,22.9063,24.3272,1.421
Ca2YCd2,13.5727,12.9652,-0.6075
Y(TiIn)2,20.7816,19.3553,-1.4263
FeCo2SbN,65.0353,54.5029,-10.5323
Li5SiTe6,23.755,22.0722,-1.6829
Li2ReSi,14.7743,19.3871,4.6128
Pa3TaN6,12.21,17.5558,5.3458
RbLiSi,10.2743,8.6154,-1.6589
Sr6Ca2Tl,15.3362,15.5153,0.179
LiSi2CBr,29.8034,21.6186,-8.1848
Cd2Fe2Ge,5.1816,7.9252,2.7436
PaHgBi,40.6562,42.9612,2.305
NbSbRh2,70.9381,56.1509,-14.7871
Ca2AcTl6,41.9232,43.1757,1.2525
Li3NbSi,36.6216,29.343,-7.2786
Nb2Ru2Au,72.842,62.6451,-10.1969
BiPAu2,34.4358,36.7204,2.2846
LiSi2Tc,35.9264,29.1883,-6.7381
Tl2RhPb2,47.5811,45.5884,-1.9927
Ba2CoHgC,15.888,13.3139,-2.5742
SrTlFe,29.0287,28.2545,-0.7742
RbLiSi3,15.5952,10.9361,-4.6591
PuTlSb,55.7645,54.8204,-0.9441
SmI,19.6542,23.0616,3.4074
Li2TaSi,18.4662,18.6656,0.1994
Li3HfSi,36.7789,26.9164,-9.8625
LiNb3Si,93.0321,73.8931,-19.139
Nd2NpScP4,26.9926,26.0586,-0.934
Y3TlSb,21.2642,22.6711,1.4068
LiSiTeO6,7.4482,6.5602,-0.8879
LiSiRu4,20.3758,18.1224,-2.2535
LiSi2Os,23.1408,21.7025,-1.4384
LiTaSi,24.4951,24.676,0.1809
LiSiPb2,35.6871,35.1321,-0.555
CsCdGe2,15.573,17.0911,1.5181
Na2LiSi4Pt3,39.3987,28.345,-11.0537
Ca2VBr6,21.5681,19.7844,-1.7837
Ca3Pm12Pr5,5.9674,7.2995,1.3321
LiCaSi,6.7989,7.287,0.4881
Mo2RhBr,17.3791,17.3387,-0.0404
Pa2ZnCd,40.482,42.7811,2.2991
Ca2Ac15Y2,55.287,54.9091,-0.3778
Ca2La15Y2,45.0677,32.4721,-12.5956
LiSi4Ru,18.6713,13.1525,-5.5188
Ca2Pr15Y2,1.4932,0.7103,-0.7829
YSb2Ru,28.3823,23.8796,-4.5027
Li4CaSi4,13.034,10.6451,-2.3888
Rb2Tl2Ni,20.2518,20.6576,0.4058
RbBa2Ag,8.2242,7.1593,-1.0649
Ca2PuZn6,15.3436,15.2969,-0.0467
LiCaSi,13.9985,7.287,-6.7115
Rb(LaSb)2,38.3278,30.0649,-8.2629
CdSn2Au,27.012,28.2837,1.2717
InMoBr3,14.4016,14.9212,0.5197
LiHfSi,47.3063,35.0156,-12.2907
LaPm2Zn,27.1832,25.1683,-2.0149
Cs(TaSe3)2,42.2699,35.6628,-6.6071
CaAcPtRh,51.3295,43.3,-8.0295
CoCuHg2Au,25.2673,21.176,-4.0912
YB6C7,60.7392,45.4697,-15.2695
NaAc2ScO5,35.8568,35.0255,-0.8313
Tc2BPb,60.7823,53.9623,-6.8199
CsZnIO2,37.1967,29.1794,-8.0172
P2Au,13.5526,18.2568,4.7042
Tb2YHg4,14.7148,14.2787,-0.4361
YSb2Ru,34.3019,23.8796,-10.4223
Ba2TbThAs4,15.8291,17.5523,1.7232
Be2HgPb,13.5453,15.1168,1.5715
Zn3CdH8,4.099,4.5603,0.4613
Te2H6W3S4,28.8476,25.5511,-3.2964
Y(BiAu)2,43.3208,45.0229,1.7021
AcAs2Pd2Pb,28.0685,30.0369,1.9683
Sc2WAu,24.1791,27.2637,3.0846
Nd3Te2Pb,33.9401,34.5664,0.6262
Ga3SnC,23.0951,19.0855,-4.0096
Li2SiSb2,21.6735,18.5205,-3.1531
PmPrLu4,25.9738,27.8248,1.8509
Sc2WAu,24.0929,27.2637,3.1707
ZrRe2P,65.4403,57.5397,-7.9007
MgUCo,18.4076,20.2707,1.863
ZrReP,45.2711,39.4592,-5.8118
Zr(ReP)2,68.8771,56.8472,-12.0299
Tl(SbBr3)2,29.7156,27.2613,-2.4543
LiSi2Se,25.082,19.3094,-5.7725
LiInSi,15.3638,14.8021,-0.5617
Tl2AgSb,44.5736,41.8768,-2.6967
Tb2PmAu2,29.0441,32.1648,3.1207
Te(PbAu)2,44.7692,45.6863,0.9171
KLiSi2,16.3018,13.0845,-3.2173
LiHfSiRu,50.0956,38.4373,-11.6583
TlAg2Sb,39.7576,35.1476,-4.61
Cs(LiSi)2,16.7514,14.8789,-1.8725
Y3HoTl2S,36.5319,35.8427,-0.6892
Ac4Y3HoBi8,46.882,48.4446,1.5626
Cs2Rb2Cd,13.3569,13.4721,0.1152
Ba2TcPb,36.8799,33.2572,-3.6227
YAl(BN)6,15.3298,13.0506,-2.2793
Ca2ScTc,65.1608,55.1072,-10.0536
BeCrTe2,23.5269,22.5341,-0.9928
SmZn5H6,5.6461,6.1326,0.4864
ZrSc3Sb,33.6743,28.667,-5.0072
AgAuSe2,40.7747,35.2062,-5.5685
AcLuCdPt,51.1181,47.0932,-4.0249
CoCuP2,16.1997,13.2988,-2.9009
Ca2ReTe,23.3725,24.515,1.1425
Co2PbW,29.8001,29.7739,-0.0263
LiAcY2,23.4298,25.8413,2.4115
LiTa2Si,27.3999,29.0015,1.6016
Pa8SnOs6,53.788,55.7716,1.9836
LiAc2Y,35.9796,38.2157,2.2361
LiRe2Si,29.3583,30.5653,1.207
AcLuCuPt,47.984,43.8369,-4.147
Sc2WAu,24.0123,27.2637,3.2514
Zr5Sc4,49.3461,42.3306,-7.0154
Ca6CdPt2,21.4084,17.1641,-4.2443
ThTi2,25.5587,29.2847,3.726
CsLiSi,17.5,15.9172,-1.5828
Ca6InCu2,5.851,5.9709,0.1199
Ti2Bi2Te,26.6591,28.7594,2.1002
LiCaTaSi,14.7606,15.7511,0.9905
LiZnIn2,13.0714,13.6251,0.5538
BaPrF5,1.9669,3.5255,1.5586
AcLuHgIr,34.8727,38.0291,3.1563
Nb(AgBr3)2,29.8385,26.3744,-3.4642
Ca(YC)2,39.347,30.4064,-8.9407
Sm5YSb5,32.0411,30.0151,-2.026
CuIr2Ru,31.8904,31.964,0.0736
Cd(SnBr3)2,13.6788,14.4435,0.7647
Na3NbTe4,47.3722,41.7723,-5.5999
CaY2(TlAg)2,30.7987,28.5901,-2.2086
Li2RhSe,24.1804,19.216,-4.9644
IrSe3,47.3932,40.8888,-6.5044
Sr(Zr2V)2,96.3938,78.1578,-18.236
YAlPt,55.5353,41.4535,-14.0819
Rb2AsI6O,29.8746,26.6178,-3.2567
Pr6C2N,15.5178,11.6336,-3.8842
YTlSbRu2,32.8202,29.4227,-3.3975
K2CeMg3F12,12.0719,12.8144,0.7425
LaPr3(YAs3)2,9.688,10.0137,0.3258
PaCr2Tc,44.6865,41.948,-2.7385
K2Li3OsF12,7.7727,9.2171,1.4444
Pm(TmTl)2,33.328,36.5838,3.2559
Li2Y(InAg)2,17.9161,15.6204,-2.2957
SrBeMo3,19.1967,17.2209,-1.9758
PaCrTc,56.8661,52.568,-4.2981
SrGaTc3,62.8941,52.0479,-10.8462
Ti2AgSb,21.4667,20.1833,-1.2834
NaIn2CoSb,23.9989,21.5686,-2.4303
Nb4VMo,118.3909,95.455,-22.9359
Pm(SmPb)2,31.3541,34.1946,2.8405
Zr4TaBe,74.2794,63.6682,-10.6112
Re2SiAu,35.8148,37.1973,1.3826
Ho(TmCd2)2,23.6209,24.8447,1.2238
Ca2BSbN,14.3148,11.7061,-2.6088
CuNi3,6.4413,9.5088,3.0675
Pm5(NdBi2)2,35.3851,36.9769,1.5919
ZrCd2Fe,34.3316,31.8561,-2.4754
Y6Tl2Tc,46.0741,43.2757,-2.7985
CeGdNi2,21.8582,22.046,0.1878
PmNdBi,29.55,33.4895,3.9395
Y2GaTe,14.0652,17.7281,3.6628
FePbBr2,26.6071,25.1192,-1.4879
Pr5HfSi4,17.5427,11.8687,-5.674
LuAgAu,36.7624,36.4779,-0.2845
CsBeSb,13.4544,15.5366,2.0822
Be2ZnSb,19.4497,14.2707,-5.179
Y2GaRh3,30.0787,24.2891,-5.7896
LiZr2In,55.3621,47.4522,-7.9099
BeZn2Sb,21.2377,15.8579,-5.3798
ZrTaBe2,39.4897,35.5237,-3.966
MnBI2N,31.6565,27.0866,-4.5699
KSiAu,21.1395,20.3342,-0.8054
BPb2N,28.2367,29.9036,1.6668
Zn2FeSi,14.6091,13.133,-1.4761
BeZnSb2,30.4478,23.4163,-7.0315
NaOsRh2,41.7184,35.1513,-6.5671
RbYAgTe2,21.3051,20.7465,-0.5586
Eu2Si2Rh2C,35.8658,28.6141,-7.2516
LiTeIr2,27.1051,30.005,2.8999
NaOsRh,33.4397,30.4257,-3.014
Rb2Ca2Ru,23.6148,20.179,-3.4358
Mn2BiTe,68.1464,59.0071,-9.1394
CeYBiAs,24.7115,28.267,3.5555
NaCuAgSb,26.8922,23.2207,-3.6716
ZnHgSb2,24.5335,21.6038,-2.9296
CdIn2Ru,19.0428,20.8936,1.8508
CaYC3,49.2964,35.6481,-13.6482
TcSb2C,55.7984,44.7858,-11.0126
Yb(Al2V)2,43.2782,36.3105,-6.9678
Zn2HgSb,15.1221,14.2427,-0.8793
Rb(TlIn)3,28.4566,29.2247,0.768
CaYC2,45.0371,34.5242,-10.5129
ZnBTe2N,30.0155,25.9027,-4.1128
NaPr2Al,5.0275,5.5833,0.5558
SiBPN4,8.9008,6.1681,-2.7327
SrSc2Be,10.78,9.5254,-1.2546
GaSe2N,27.0214,23.0477,-3.9736
Re3(Mo3W)2,18.9526,21.3743,2.4216