Formula,E_hull_DFT (eV/atom),E_hull_ML (eV/atom),Delta (ML - DFT)
PCl2,3.177,4.0956,0.9186
Cd2In2Pb,23.9863,25.2186,1.2323
Al2CdAg,11.8387,12.6369,0.7982
GaPbAu,32.5781,37.5422,4.9641
RbNiIr2,25.4205,27.1752,1.7547
NbSnN2,49.5087,42.4774,-7.0313
ZrCd2Mo,38.1524,36.2394,-1.913
PrGeAs2,12.7734,12.5692,-0.2042
SiPt4W,69.0144,51.9758,-17.0387
SrHfSi3,50.9204,34.4646,-16.4558
RbPuTe,31.9885,33.2186,1.2301
Cr2IrWN,33.6594,32.596,-1.0634
Ca(FeN)2,13.7205,11.9526,-1.768
La(CdHg)2,17.5663,15.7577,-1.8086
SrNdI2,20.11,21.4262,1.3162
ReIrW2N,82.6889,78.9822,-3.7067
InFeBi2,31.288,30.9701,-0.3179
CePr2Pt,26.0416,21.8961,-4.1455
Sr2NdI,18.1773,19.8091,1.6318
Y3TcC,74.4228,60.7259,-13.697
BaNaSb,22.4485,19.9162,-2.5323
FeSb,30.2905,26.3599,-3.9306
PmNd(SmHg2)2,11.8149,14.0897,2.2748
CaPm6Sm3Y2,23.0706,23.238,0.1674
CaSb2,29.2745,23.3733,-5.9012
PrTl2Ge,26.7132,28.5001,1.7869
Tb2PrGe,14.1634,17.3662,3.2028
Pr3S3F,21.5673,16.5211,-5.0462
Pr(Tl3S4)2,49.9572,41.8383,-8.1189
Sc6CrSb2,18.9741,16.1172,-2.8569
SiTeAs2,30.166,26.8421,-3.3239
BaNaSb,19.0797,19.9162,0.8366
La3Y6Er,27.0072,23.646,-3.3612
SrScW2,33.5843,29.3516,-4.2327
SrBiAs2,22.8038,22.2313,-0.5724
Y4Tm7In,25.0142,25.9232,0.909
Sm(TmCd)2,21.3407,24.592,3.2514
PrAgS2,17.9059,13.7923,-4.1136
Sr4LiRh,18.0055,16.0775,-1.928
Ac3ThAs4,36.0209,38.4924,2.4714
Sr4Ag2N,16.8693,15.6507,-1.2185
Y2TlHg2,26.5867,24.4015,-2.1852
BaSc4P,19.0364,16.1441,-2.8923
Ba(NaSb)2,24.1699,20.8425,-3.3274
AsPdRh3,36.5625,27.9596,-8.6029
ZrCrMo,41.5754,38.3091,-3.2663
LaHfS3,64.065,44.9093,-19.1557
NaPaBi4,47.0427,48.3714,1.3288
Ce2PaZn,31.3887,34.4404,3.0517
Th4SiTc,53.8008,52.1414,-1.6594
CrFe2Ni,37.2112,27.795,-9.4161
CrFe4Ni,24.8524,18.9547,-5.8977
CrFeNi4,27.5235,23.2091,-4.3143
Cr(FeNi)2,32.818,24.2682,-8.5498
Rb3Ac(YS3)2,34.7122,27.7782,-6.934
KSiAu3,30.8509,30.1551,-0.6957
POsN,27.2209,26.187,-1.0339
TlIrW2,43.3402,47.9199,4.5796
NiOsN2,42.0936,35.3777,-6.7159
ScReAg,55.8707,43.5928,-12.2779
TaCu2,0.0,6.3754,6.3754
KW2S,31.0333,29.1149,-1.9184
Pa4SiTc,53.3359,52.1146,-1.2213
Na2AlAgN,17.4265,14.4133,-3.0133
BIrRu2,23.3824,23.6811,0.2987
In2ReAg,28.2636,28.6739,0.4103
NiOsN2,42.7326,35.3777,-7.3548
Cd(AgPb)2,34.92,33.5744,-1.3456
Sc2ReAg,42.1652,34.024,-8.1412
Sr2SeCl2,27.8715,24.4596,-3.4119
Al3NiOs,14.2141,14.7901,0.576
InRe2Ag,33.7954,34.8962,1.1008
TaSb2N,26.3903,25.9946,-0.3957
Y2Hf(TlS3)2,66.0009,54.0021,-11.9989
ScReAg2,49.1103,38.8092,-10.3011
LaHfSc3,42.6585,32.22,-10.4385
V2ZnGaO8,32.7141,25.2364,-7.4778
Na3SnBi2Pb3,40.0179,39.4462,-0.5717
NaLu2N,22.4434,23.8045,1.361
NaScBr4,12.9391,12.1488,-0.7903
ZrCrMo2,34.8153,33.3256,-1.4897
TbPrS3,29.9852,22.6986,-7.2866
Cu(NiGe)2,10.207,7.104,-3.103
Sc2InRe,40.7058,33.2103,-7.4955
TaGa,28.3316,25.5886,-2.7431
NaTlSb4,42.4419,36.8313,-5.6106
YTlSiS4,46.2913,37.1656,-9.1257
NdPu3Ir8,48.4589,51.5766,3.1177
NaScIn4,20.4892,18.777,-1.7123
ScInRe2,48.4505,42.8418,-5.6087
SmMg3,5.6259,7.7049,2.0791
CrSbMo2,21.3273,21.7146,0.3874
Tb4IrRh3,36.3176,33.3619,-2.9557
Cr6NiSb2,21.6828,18.4918,-3.191
ScInRe2,48.231,42.8418,-5.3892
TbPmSiIr,26.9018,28.5754,1.6737
FePRu,13.6593,14.3585,0.6992
NaPmAgAu,31.6537,30.4474,-1.2063
In2SbRh,33.3729,30.2644,-3.1085
YHgN2,32.8412,28.6911,-4.1501
BeTl2Ni,27.585,28.9652,1.3802
Be2Al2Sb,25.4637,19.4324,-6.0313
Ag(AuI)2,32.406,31.857,-0.5489
PmAlGa2Ni5,8.3132,9.8168,1.5037
La5YEr4,39.2201,32.727,-6.4931
BeAl2Sb,24.4659,19.4609,-5.005
Ca(VSb)2,65.8575,50.7329,-15.1246
Y5(ErSc)2,9.5727,12.1848,2.6122
NiRuC,23.2272,23.1121,-0.115
ZrV3Ru,102.0175,80.335,-21.6825
PaV2AgO8,28.5257,24.1283,-4.3974
NdSm2Tl3,37.4704,39.0801,1.6097
Li(SbP)2,19.7635,16.7692,-2.9943
BeAl2Sb,24.4587,19.4609,-4.9978
Cs3HgSb,17.784,17.242,-0.5419
TbNd2SmHg4,9.0033,10.5178,1.5145
MnSbP2,38.4933,32.477,-6.0163
Ho12Tl5C2,37.5192,36.7071,-0.8122
Be(CuNi)2,4.2943,5.6792,1.3849
MnSb3P,48.7925,39.6161,-9.1764
Fe2SbP2,36.0995,30.3806,-5.7189
Sc3AgIr,17.616,13.7155,-3.9005
MgSb4W,37.8092,33.1709,-4.6383
Li4MnSb,24.4171,20.6742,-3.7429
BeTcP2,26.5066,22.3486,-4.1579
Na3(Te2Au)2,37.0317,34.2481,-2.7837
Ta5Ga3,68.8664,53.7271,-15.1394
MnSb2P,48.6812,40.2895,-8.3917
Li4FeSb,19.1677,15.3586,-3.8091
BeTcP3,22.6301,18.7083,-3.9218
Sr2TaC,40.9069,31.0362,-9.8707
LiSbP,19.3947,16.9289,-2.4658
Be2Ag2Sb,19.8904,16.4009,-3.4895
Cs2BeN,36.2612,30.9827,-5.2784
Pa2Ag2O7,16.4359,18.5641,2.1282
Pr6NdSc,0.1546,1.5403,1.3857
NaSmAu4,39.3118,39.8268,0.515
NaTlPb,39.9816,39.7984,-0.1832
LaSc2I,21.2647,20.1707,-1.0939
NaSrInBr6,10.512,10.5569,0.0449
Li(NbCu)2,53.9047,45.5692,-8.3356
NbCu2P,38.3092,32.9786,-5.3306
FeCuP2,18.4613,15.138,-3.3233
TaOsAu2,39.0303,43.3986,4.3683
Na3In8,21.0638,20.4381,-0.6258
Tl2GePbBr6,22.3715,22.9683,0.5967
NaSmHg4,7.7626,7.8635,0.1009
YTa2Os,50.4748,47.8237,-2.6511
Sr2AgRu,19.2375,18.5121,-0.7254
SiP2RuN,22.7388,21.4889,-1.2499
SrAgRu2,20.5985,20.5108,-0.0878
Sn2GeTe4,31.3188,30.0207,-1.2982
Tb2TlRh,32.3472,33.3531,1.0058
Sc2SiAu2,31.7734,30.9297,-0.8437
Pr(ErSe2)3,29.5526,26.1803,-3.3723
Sr2TlRu,23.7528,25.3694,1.6166
Zr4AlPt,81.0695,66.8457,-14.2237
TlCrIr,36.3113,36.7874,0.4761
Ac(La2Sm)2,41.5002,35.1322,-6.368
Se3IN,36.7516,29.4402,-7.3114
YSb2Pd,32.4666,28.4036,-4.0629
ThPt12,87.3921,64.3595,-23.0325
NaHoTe4,32.1508,31.4206,-0.7303
Zr2AsOs,61.7924,56.0136,-5.7788
TmH4Ir,7.0774,11.1451,4.0677
Ag2(H2Rh)3,19.2661,14.8319,-4.4342
Ca4Sm3YSe8,49.9554,40.2791,-9.6763
PrGe2Au3,25.9561,27.0219,1.0658
Tl2TeI,41.4325,41.0571,-0.3754
NaCu4Ag,13.8756,13.1807,-0.6949
NaBi2PbI,42.1406,41.3766,-0.7641
UCd2Rh5,43.6378,36.0651,-7.5727
Be17FeW,10.563,8.1238,-2.4393
NaSr4Tl,21.4159,21.928,0.512
SiPOs2CN,35.1778,30.9899,-4.1879
Ca(H2Ru)4,5.43,6.284,0.854
YbMgAu,21.872,25.3415,3.4695
TlSbS3,49.0671,38.5668,-10.5002
PaBe17Fe,9.9064,8.2713,-1.6351
Ba2I2Cl,8.3621,9.55,1.1879
Y4MgMn,28.1074,24.7772,-3.3302
Ce2Pm3YAs6,15.0288,16.9473,1.9185
Zr4SiW,75.0637,64.2115,-10.8522
NiPtAu,42.763,38.3499,-4.4131
Sm2Tm2Sn2C,29.75,28.6621,-1.0879
CaAlSn2,8.5167,10.6221,2.1053
Ti2CuP,9.2318,10.0907,0.8589
Si2Sn2O7,18.377,11.5626,-6.8144
NaPaTe4,38.1885,37.6687,-0.5198
FeOsC2N,52.579,39.7436,-12.8353
NpU2,69.4407,72.8291,3.3884
SiSn,0.0,1.2514,1.2514
TlPW,108.46,93.596,-14.864
TiCdSn2Ge,22.9652,18.9829,-3.9823
La2Y6Er3Th,28.417,27.2007,-1.2163
Ce(ErTl)2,33.2347,35.6275,2.3928
Ca2RhWN,26.3269,20.5777,-5.7491
GaAgSn,16.9434,17.1967,0.2533
NaPuAgBr5,17.4686,18.1806,0.712
GaSn2Hg,12.4855,13.992,1.5065
GaAgSn,20.2849,17.1967,-3.0882
Li3IBr,13.9165,13.1969,-0.7195
NaVSe4,52.5383,39.9693,-12.569
FeTePt,44.639,36.899,-7.74
BeZnAu4,37.0621,35.1419,-1.9202
Pr2YHg,5.689,6.1755,0.4865
AlPdI,13.8924,13.4284,-0.464
TaBe3N,32.9469,26.646,-6.3008
AlCd,5.4147,9.4215,4.0067
KRb8Na5,10.7961,8.5559,-2.2402
ZrCd2Pb,47.2834,44.5992,-2.6842
Sr2VZn,39.1582,32.3432,-6.815
ZrCdPb,57.1034,53.18,-3.9234
ScSi2Br,24.2817,21.7387,-2.5429
Ca3IrC4,41.1566,28.6431,-12.5136
RbSiP2S,26.5644,20.0762,-6.4882
InGeTe,13.4924,14.5296,1.0372
BaNaLa2Pt,43.2126,31.6566,-11.556
La4YEr4,37.765,32.6368,-5.1282
TmPaSb2C,42.4675,38.6477,-3.8198
LiLaPr2,10.7181,9.2338,-1.4843
Ge2RuSe,21.2536,20.5704,-0.6833
Mg2SiOsN,29.6002,24.8298,-4.7704
BaLi2W,14.6999,14.7451,0.0452
IrPtRh4,47.4754,37.848,-9.6274
BeCuN,26.394,22.3087,-4.0853
CaMn4Be,72.6304,57.0909,-15.5396
SrCrTe2,28.5747,25.7816,-2.7931
TaCS2N,53.55,43.0952,-10.4548
GaBiSe,27.258,26.4989,-0.7591
Y4MgZr,27.7868,25.2331,-2.5537
V4Pt2Pb,107.8031,82.5328,-25.2703
Y4MgW,24.8872,19.0513,-5.8359
ZrPRu4,27.9607,27.8732,-0.0875
PaBe17Al,8.9173,7.5722,-1.3451
NaMnAsSe2,58.7438,51.7591,-6.9846
Re(TcN)2,88.232,77.3232,-10.9088
Mn2Ru2Au,48.1887,44.1484,-4.0404
SnN,10.6087,12.5989,1.9902
LiInW2,26.273,27.7573,1.4843
CrOsW2N,83.5117,70.1797,-13.3321
SrHf3Mo,92.5831,67.1476,-25.4355
Pa3AsSe2,52.2444,51.7639,-0.4805
FeTePt,44.8058,36.899,-7.9067
TcPSeN2,42.7701,33.3844,-9.3857
Ta5Ga3,68.7025,53.7271,-14.9755
NaErIn4,21.9962,22.7737,0.7775
SbRu2Pt,36.1635,32.033,-4.1305
NaAl2CuBi,20.2033,18.8334,-1.37
BaLiW2,22.6196,24.5922,1.9726
TlSb2Se,43.6879,38.0731,-5.6148
CdSb2P,24.9266,22.5981,-2.3285
CrGeW2N,26.1339,27.1088,0.975
U3Ga5,24.5225,27.0731,2.5506
BeHgAu,15.8764,16.9749,1.0985
CaIn2,11.6271,14.1911,2.5639
ReTeSe2,44.6963,40.6222,-4.0741
Er8ZnNi2,22.9539,24.3417,1.3879
NiPb2Se,40.1761,39.0857,-1.0904
Gd2Fe3Ru,13.6798,12.0484,-1.6313
InPPb,25.742,27.5286,1.7866
Na2LiTlBr,29.6142,26.9471,-2.6671
AlZnTe2,23.6432,24.1782,0.5351
NaTbCl4,9.2941,10.4127,1.1186
AlZn2Te,13.0772,14.3829,1.3057
GeAsAu,17.8626,20.7786,2.916
AlTeBr,18.9691,18.7288,-0.2403
P3AuN,26.8242,22.6804,-4.1437
CdAs2Ru,19.1965,15.8815,-3.315
Hf2Co2Cu,73.5257,53.274,-20.2517
In4GeSb2Te,27.4331,26.0664,-1.3667
HfNb4In,121.6762,95.3994,-26.2768
La2YEr7,32.3032,31.0612,-1.242
Ce(PuBi)2,46.6419,48.9325,2.2906
ScSbSe,17.0136,14.7051,-2.3085
La12Y3Er,43.1971,32.5453,-10.6518
Al2HgTe,12.1439,12.3886,0.2447
ZrAlAg4,37.9048,31.5781,-6.3268
Ge(BMo)2,7.8959,8.3108,0.4149
BaPPt,35.4274,26.9951,-8.4323
AlHgTe2,21.8662,21.0836,-0.7825
YAlSe,35.4493,28.2791,-7.1702
SmZrNi4,24.3592,24.0926,-0.2666
Th2Co2Cu,42.5258,40.3458,-2.18
CdCo2Cu,21.5705,18.7109,-2.8596
SmHo4Rh5,37.4978,32.6715,-4.8263
DyFeSi,14.9948,14.352,-0.6428
NdCoAs,0.0,4.971,4.971
VS3I,59.108,45.4331,-13.6748
Na2WC,34.0475,30.0001,-4.0474
PrSnBi,25.1861,25.2908,0.1047
ScO2F,58.9193,52.4268,-6.4925
CoTcO2,18.3433,16.6202,-1.7231
Na3WC,37.9412,30.0022,-7.939
Zr2TaCo2,57.1004,46.272,-10.8284
Hf3(AgHg)2,70.4535,50.8553,-19.5982
Cu2Pb2O7,10.0607,9.4238,-0.6369
AlMo3Rh,33.0134,23.8408,-9.1727
ZnGa2Sn2Pd5,14.9485,14.0768,-0.8717
ZnSi2,14.221,10.3372,-3.8838
MnFe3Sb,43.8222,34.4932,-9.3289
AlMoRh,28.5734,23.1671,-5.4063
NiP2PtS,36.9704,30.8086,-6.1618
NaCd7Au2,25.3394,25.4098,0.0704
AlMoRh,28.8248,23.1671,-5.6577
Ho2Er,24.1265,28.4086,4.282
TaNb4Pd,93.9923,79.0824,-14.9099
LiTiIn2,9.0051,11.4512,2.4461
FeNiSe,47.905,36.2742,-11.6307
As2PbW,30.1512,30.5114,0.3602
NaPmIn4,21.194,21.9276,0.7336
Er2Co2Au,24.0231,25.6389,1.6158
TaOsAu2,43.3137,43.3986,0.0849
Er2Au2O7,6.8324,8.514,1.6816
GaNiPPtS,40.4222,30.5474,-9.8748
LiCaLaEu,21.6125,19.2484,-2.3641
Ba(NdI4)2,19.793,20.5202,0.7272
ZrCrRe2,46.858,45.8378,-1.0202
ScSiAu3,46.7598,43.5133,-3.2465
NaHfAl,52.1812,40.3705,-11.8106
TaNb4Ir,97.5697,81.9338,-15.636
Sc2SiAu,35.0581,33.1907,-1.8674
Pr2NiPd,10.6387,10.8585,0.2198
Ta2OsAu,40.4924,45.087,4.5946
Sc2Si2Au,37.8002,33.794,-4.0062
Ce(GaCo)2,10.4087,12.5969,2.1882
CsRbClO2,5.2253,6.1288,0.9035
Ta2OsAu,40.7637,45.087,4.3234
La2BiSb2,43.5238,36.9909,-6.5329
HfP2SO,49.2328,37.9919,-11.2408
Zr(ReW)2,39.5498,44.7891,5.2393
Nd2PdRh,21.9744,24.6973,2.7229
Ti2PdS,13.8145,14.3469,0.5324
Cs2PNCl6,13.6232,12.3246,-1.2986
TaOsAu2,43.7208,43.3986,-0.3222
Dy6Y3Er,18.6461,21.5249,2.8787
CaTlCd17,20.0604,20.4996,0.4392
CaScCd17,18.3462,18.2613,-0.0849
CaSmCd17,18.6179,19.1889,0.571
CaThCd17,20.8073,21.3944,0.5871
CaLaNi17,9.7566,9.5693,-0.1873
CaCeAu17,43.6696,44.7454,1.0759
Tm2Fe17C3,10.956,9.5251,-1.4309
Ca2In6CuIr,21.5987,19.9493,-1.6494
NpCuTeS,36.5776,34.6974,-1.8801
K(Tl2In)6,39.0356,39.2777,0.242
Tb(CePt)2,43.5364,36.3046,-7.2318
Dy(ErIn4)3,21.7102,22.8627,1.1525
ZrCu2As,30.4683,28.466,-2.0023
Na3ZrAs,37.8224,31.386,-6.4364
Fe2Ir2O7,6.6402,6.2373,-0.4028
K3CrI6,14.0523,14.1631,0.1108
Sc3BiSO,61.1803,55.3715,-5.8089
LiY3Tl2,19.022,21.7387,2.7167
CaAcNdY,32.0488,31.0625,-0.9863
ZrAlOs4,44.7613,44.9053,0.1441
NaCuAgMo2,30.0293,22.3048,-7.7245
ZrTa4Al,41.5663,41.9947,0.4284
ZrB2Ru,28.5579,28.4853,-0.0725
NaHoCl4,9.5772,10.6897,1.1125
Cs(Cu2Ni)2,10.6273,11.3445,0.7171
Nd3(HoAg)2,27.6458,27.4925,-0.1533
SmY2Er2Sc,17.3502,18.677,1.3267
SiOsCN,42.6604,31.6155,-11.0449
K3BF6,1.474,2.6785,1.2045
ReW2,26.278,37.3925,11.1145
K2CoAg,16.1339,13.994,-2.1398
V2CrGa,68.6167,54.4311,-14.1856
HfCo,49.5913,36.7022,-12.8891
YScCuSi,40.4969,33.5009,-6.996
CeY2PuAs4,19.2145,21.5519,2.3374
PtSeBr2,38.7994,30.7427,-8.0567
ErTmAgRh,34.4709,31.2848,-3.1861
ErPuInCu,31.9087,34.3798,2.4711
Cs2RbSn3O8,47.6916,38.2554,-9.4361
LiNiAgHg,11.6762,10.5759,-1.1003
ZrCrRu,41.1988,37.6757,-3.5231
Ce(SmTh)2,41.4321,45.3131,3.8809
Al2GeSbN,20.8767,17.3828,-3.4938
CsBeP2,5.2212,5.7862,0.5651
LaPa4Rh15,52.0685,40.7634,-11.3051
ReSi2AgN,72.9468,61.9696,-10.9772
NaPbCl4,11.4616,11.9421,0.4805
TbNd2(YTm)2,23.6424,25.8871,2.2447
Ca2UNbN4,26.7088,25.5576,-1.1512
La7Y2Er3,39.8594,32.3497,-7.5096
Zr4CdSi,71.578,60.1549,-11.4231
AlCr4Co,15.8905,12.0623,-3.8281
TiCrN2,5.2344,7.2389,2.0046
Sm2(HgBi)3,26.1912,27.315,1.1238
BeZn4Pt,23.8908,17.8978,-5.993
NaZrCl4,21.6441,19.5811,-2.063
TmPaRh2,48.1759,44.0079,-4.168
Y(Er3Al)2,28.3456,28.0994,-0.2462
EuSnPt,22.087,18.2395,-3.8474
ZrCrRu2,34.7196,33.4167,-1.3029
HoBe17Fe,6.4261,6.1903,-0.2358
NaWCl4,12.4347,13.4381,1.0034
Gd2HfZr,75.3423,61.4801,-13.8622
Tm3Ge2RuC,27.4469,26.6303,-0.8166
TiBe17Al,5.9034,5.2927,-0.6107
RbZnSe2N,30.503,24.0326,-6.4704
NaCrI4,20.4398,21.3148,0.875
Ce(ThAu)2,50.0379,52.9027,2.8648
Be17CrNi,2.9595,4.0645,1.105
AlIn4Ir,21.6667,22.9995,1.3329
BaNbTe2,56.1332,47.9565,-8.1767
TmBe17Al,8.2918,6.4359,-1.856
Be17CrRu,1.274,2.7308,1.4569
NaFeBr4,12.7879,13.0776,0.2897
CrSbIr,34.1685,31.8611,-2.3074
ErBe17Ir,3.7153,5.4064,1.691
ErThBe17,4.9283,6.5593,1.631
DyBe17Re,3.4632,4.9748,1.5116
Na2Tl2CdIn2,29.9793,29.1237,-0.8556
Na(CuAg)2,17.3437,15.5755,-1.7682
MgBe17Rh,2.6525,3.4074,0.7548
NaFeI4,21.1237,21.2518,0.128
Ti2PdRu2,3.4894,9.0711,5.5817
Rb2AgRhN,23.4768,18.1801,-5.2967
TaNb2S3,81.1924,64.1115,-17.0809
NaCuAg,21.083,18.0935,-2.9895
Y4Pd15Pb,24.9592,23.5409,-1.4183
Be17MoW,7.2347,5.9229,-1.3118
Pr3(TmAg)2,15.6958,15.5113,-0.1846
Be17NbAg,9.4478,8.6051,-0.8427
NaUTl2,48.9031,49.3296,0.4265
BeGa2As,7.5246,7.6695,0.1449
Be17NbMo,8.9737,8.1039,-0.8698
BeZnAg4,26.5398,19.3056,-7.2342
ZrCd4Si,32.0074,29.1285,-2.8788
Be17NbAu,9.8455,9.7833,-0.0622
Be17MoPd,6.0572,5.1201,-0.9371
DyBe17Mo,3.0214,3.6955,0.6741
BaNaGa4,10.9908,10.0772,-0.9136
Mn3Ga2Co3,42.7151,35.1032,-7.6119
CsInSi,11.0167,11.6142,0.5975
BeZnHg4,5.5997,2.806,-2.7937
Pu3Mn2Sn3,59.4241,55.3718,-4.0523
BRuPb3,36.0685,37.304,1.2355
NdBe17Rh,3.8249,4.6726,0.8477
Sm2BeSi2,18.594,18.2666,-0.3274
Mo2(RuPt)3,44.7135,35.923,-8.7905
CaSi4W,20.8998,16.1117,-4.7881
YAl9Cu2,5.9682,5.2361,-0.7321
ZnHg2Pb,15.003,15.7327,0.7297
CdIn5Rh6,34.0011,27.8071,-6.194
Mo3Pd2Rh3,32.0798,25.3527,-6.7272
SrCa2Tl,20.107,19.9365,-0.1705
SnAsBr2N,19.1394,16.6175,-2.5219
KNbS3,66.4721,48.3931,-18.079
KBi2Rh,42.3618,40.1976,-2.1641
BeIn2Tc,34.2038,30.829,-3.3748
RbUN2,25.6311,27.3407,1.7096
InAgGe,17.0142,16.8265,-0.1877
ScBe17Rh,4.3412,3.9899,-0.3513
Zr2Be,58.8094,54.3368,-4.4726
ScSi4Se,30.0801,22.2892,-7.7909
Ta2SiPt,44.1104,39.2438,-4.8666
Y2TiAl2Ni5,31.2562,28.8349,-2.4213
Zr2ScTc2,98.4342,82.3537,-16.0806
TbMoAs2,14.8836,18.0433,3.1596
Sm5RhPb2,18.1979,20.4844,2.2865
AlZnSeN2,28.5251,23.601,-4.9241
Ca2SiRu,17.0161,13.9012,-3.1149
PtSeBr3,36.5823,28.4179,-8.1644
CrSnPd2N,26.2209,22.1623,-4.0586
Na2(InPb)3,33.2215,32.6898,-0.5317
TbScBe17,3.1827,3.6327,0.45
Tb(Nb3S4)2,87.6656,66.2293,-21.4363
ThScBe17,5.3076,5.7458,0.4382
SbTe2PbSe,46.2983,41.6708,-4.6275
Sm3Y2Er7,25.7771,27.5917,1.8145
Re2GeN,100.2841,88.0565,-12.2276
PdPb3Au,44.7575,45.7308,0.9732
Tm4SbPbC,33.7422,31.7096,-2.0326
PmV(GeO4)2,13.3457,12.4832,-0.8625
TaSiPt2,57.2852,44.9491,-12.3361
Cd2GaSi2,15.5967,13.8718,-1.7249
CaZrOs,26.5498,32.8701,6.3202
AlFeRe,28.872,24.893,-3.979
Tm4TlPbC,35.2953,34.1751,-1.1202
Na2(LaPb)3,40.8545,36.1999,-4.6546
SrAc2Tm,43.3788,46.1261,2.7473
Tm2SbSe,37.2311,35.2345,-1.9965
Re3SiN,80.1898,73.0762,-7.1136
Ac2Tm,53.3635,55.6456,2.282
RbMnPN,36.1764,26.8173,-9.3592
KPmPt4,65.1334,49.235,-15.8984
Si2AgGeN,16.348,12.2094,-4.1386
CaReOs2,32.7341,36.3269,3.5928
Rb3Na2Au3,22.1815,21.2785,-0.903
CaRe3Os,34.9704,37.4059,2.4355
Pr2HoPt,26.8636,22.8319,-4.0317
Na2BiOsC,42.219,36.851,-5.3679
NaNdIn4,21.1674,21.8929,0.7254
Si3NiSe,20.0855,14.6461,-5.4394
AlSbMo2,29.4716,23.5338,-5.9379
Sr2Cd2Ag,21.3425,17.1575,-4.185
Zr2AuI,61.9145,56.3826,-5.532
Na2(SrBi)3,27.9261,28.2783,0.3522
Na2(SrSb)3,23.9791,21.4152,-2.564
AlSbMo2,29.7153,23.5338,-6.1816
K2ZnAs,8.891,8.7306,-0.1604
CsRb2PuO6,8.8326,9.5995,0.7668
K3Cd5F12,0.3876,0.4047,0.017
IO,40.8894,32.1028,-8.7866
PmTh4Tl15,52.3763,53.3923,1.016
MgZnRe2,28.649,26.2862,-2.3628
Na3Tl2Au3,37.0022,36.0607,-0.9416
CdIrPb2C,48.0297,44.0966,-3.9331
AlSbMo2,29.8123,23.5338,-6.2786
GdMgZnPb,23.4434,24.9044,1.461
EuGdZnSn,21.0662,23.0789,2.0127
TiBe17Ir,4.0931,5.1342,1.0411
Be17SiTc,8.5077,7.3515,-1.1562
Be17TcW,10.9698,8.9405,-2.0293
PaBe17Tc,10.3018,9.0504,-1.2514
CeBe17Tc,9.7885,7.9435,-1.8451
PmYSe2Cl,48.559,45.2432,-3.3158
LaNb2I,86.0021,68.0584,-17.9437
ZrBe17Mo,6.6931,6.5599,-0.1332
Be17VCo,8.4015,7.4506,-0.9509
ZrPaBe17,9.9316,9.2175,-0.7141
HgBiTe2N,29.7713,28.1829,-1.5884
Ti2(NbIn)3,61.8145,51.8073,-10.0073
AlZnSiN2,30.2807,24.7586,-5.5221
Cu2Ni7Ir2,13.13,15.7542,2.6242
AlSnAu,23.7863,25.4519,1.6656
BaCrSb2,24.0404,20.7242,-3.3162
CrCd2Ru,16.2388,17.3704,1.1317
GePAuN,31.2974,27.9689,-3.3286
CaPb2,36.6064,38.669,2.0625
ZrBeIn4,30.1546,28.3705,-1.7842
Se12S5I3,38.2152,28.4241,-9.7911
Hf3(Cu2Ge)2,52.5313,39.3243,-13.207
Gd2RhN,26.4275,25.6331,-0.7944
Ti3SbS,15.7818,13.6482,-2.1336
Be4PtSe,23.082,18.7702,-4.3117
CeSm2Tm5,23.8937,26.4298,2.5361
K(TiHg)2,1.1498,3.7527,2.6029
CrCuP2,27.1765,24.6743,-2.5022
Na2InSnPb2,29.5695,29.7362,0.1667
CeUCN,50.3435,47.1787,-3.1648
LiTcB4,15.742,15.7754,0.0334
TbNi4Sb,18.8611,18.0677,-0.7935
Mn4BePb,75.5929,62.6342,-12.9587
Na2SrSn2,20.4928,19.914,-0.5788
Pr5In2Pt,12.7704,11.2667,-1.5037
Zr(ScIn)2,26.0099,24.6076,-1.4024
Ce2GdAg,27.6757,28.1466,0.4709
NaHgS4,38.4699,27.9102,-10.5597
Hf2SnIr2,69.1396,56.464,-12.6755
Ce2SbCl2,19.0591,20.1423,1.0832
NaInS4,41.2242,31.4349,-9.7893
CaLa4Be,40.8629,28.8699,-11.9931
YBiMo2S,43.0729,33.6836,-9.3893
Ca2LuN,10.7196,13.1429,2.4233
CaNi,11.9699,9.1996,-2.7703
InRe2Ag,33.4287,34.8962,1.4676
Zr3AuS,56.4626,49.3203,-7.1423
NbH8Au5,27.2084,25.354,-1.8544
BeFeP4,14.8016,12.4186,-2.383
In(ReAg)2,33.1885,32.5392,-0.6493
CaYTmIn,22.1927,21.2824,-0.9103
NaCa3Rh,18.6669,15.2418,-3.4251
NaHf3Ir,101.6361,74.7852,-26.8509
TbPrAs2Pd5,13.7429,15.3606,1.6176
HfNiSb2Ir,61.7832,47.8915,-13.8917
NaCa2Rh,20.8331,17.3142,-3.5189
HfPIr,44.3019,31.9583,-12.3436
Hf2TlAsIr,79.8975,63.074,-16.8235
LiMoIrOs,28.5503,29.3689,0.8186
SrVMo2,37.5815,33.2218,-4.3596
Cs(Ni2Ru)2,13.507,14.7397,1.2326
Hf2PIr,90.0093,66.5713,-23.438
Sr2BiW,35.5472,30.98,-4.5672
HfIrAu2,64.2426,58.698,-5.5446
Hf5IrRu4,83.5757,62.9076,-20.6681
LiHf2Ir,82.3326,63.0085,-19.324
Mn4BeRu,69.2494,57.2616,-11.9879
BeIn4Ru,16.9744,18.0345,1.0602
Hf(CuIr)2,41.4484,37.2849,-4.1635
Sm2Sn2Pb,23.3825,26.6661,3.2835
Hf3IrF,97.5042,70.6995,-26.8047
TbMn17Os,92.6525,74.4464,-18.2061
BeRe4P,41.5278,39.5263,-2.0016
HfTeIr,51.8054,40.5717,-11.2337
Ac2VReO8,29.3306,27.4708,-1.8598
HfThIr2,73.3862,66.3906,-6.9955
YTeI2N,42.6674,38.1873,-4.48
Ca(ScFe)2,30.6554,27.9222,-2.7332
Ho4Ir3Rh,35.7284,36.4671,0.7386
CuBi3Mo,47.3564,42.273,-5.0834
Hf2PaRh9,65.5809,47.7515,-17.8294
PrY3Ni2,74.89,65.6972,-9.1928
Y3TmNi2,80.7611,71.6785,-9.0826
ScFe,22.2357,21.9197,-0.316
PmScGa,14.521,15.3778,0.8568
YV2NiTe,95.1015,76.8824,-18.2191
Nd3YNi2,35.2387,34.1596,-1.0792
Pr3YNi2,27.1462,23.6322,-3.5141
ScFe,7.5119,21.9197,14.4078
YTm3Ni2,38.2174,37.4115,-0.8059
Pm3YNi2,35.2927,34.2099,-1.0828
YZrCo4,35.3846,31.5019,-3.8827
CoTc2Br,51.7235,41.6862,-10.0373
TbCe(US2)2,50.3197,43.2615,-7.0582
CaEuPd2,16.5533,18.4689,1.9157
NpTi2Ir,30.7065,34.0569,3.3505
Ni(H5Rh2)2,13.5729,9.9216,-3.6513
CrCd2Tc,35.504,31.6852,-3.8188
Ge3Mo5,4.4449,8.7956,4.3507
Rb2Na2Pb,19.8828,18.1576,-1.7252
U6ReRh2,60.9309,60.3045,-0.6265
Pu4PaH10,23.4232,24.2885,0.8653
TmBC,44.4304,38.2149,-6.2156
RbOsW2,98.1907,79.5735,-18.6172
VNi6Pd,22.9339,21.084,-1.8498
Nb(MoS2)3,45.2108,34.6164,-10.5944
PuThSc3,22.9594,26.552,3.5926
YHfCoGe2,52.8752,40.7121,-12.163
Nb2Al2Bi,62.6357,54.0639,-8.5718
Cr4(FeH3)3,10.7337,8.0537,-2.68
Y3Ga3ReGe2,20.9251,18.9872,-1.9379
Pr3TlCd2Rh3,24.1321,20.6637,-3.4685
Yb2CuIr,29.6416,32.0776,2.436
Li2W,8.5862,13.0391,4.4529
YHfTc2Te,106.6088,84.3959,-22.2129
PtAu6,54.4587,51.1939,-3.2648
Tm2SnHgRh4,34.0155,28.7971,-5.2184
ZrZnI2,34.4751,31.2981,-3.177
SrEuSiAg,32.6947,25.9274,-6.7672