Formula,E_hull_DFT (eV/atom),E_hull_ML (eV/atom),Delta (ML - DFT)
SmErTh,34.8591,41.4273,6.5682
Ta4GaP,45.0787,38.1639,-6.9149
Li(HPd2)4,11.0961,12.2095,1.1134
Y5HoEr2,14.0953,16.8674,2.7722
GaAuC,34.6459,32.1508,-2.4951
La4DyHo4,38.6193,33.9051,-4.7142
KLiIr2Os,31.3916,31.7653,0.3738
ScBeW2,26.9697,26.3079,-0.6618
Rb2Y(Cl2O)2,18.3438,18.6426,0.2988
KZrGa2,28.8286,25.9188,-2.9099
CdSbRu5,21.2416,22.6186,1.377
YI2ClO,55.4655,50.0048,-5.4607
YClO2,39.3115,38.7995,-0.512
Na2LiTe2,23.1526,20.8726,-2.28
Fe3(PdRh)2,19.1887,16.929,-2.2596
ZrSc2AlS,42.3803,36.6274,-5.7529
Y2Cl2O,57.6849,54.98,-2.705
CsCaTa2,23.1245,26.0985,2.974
Pa2Zn2Fe3,36.8792,32.4502,-4.4289
Tc2MoPb,63.8996,57.3336,-6.566
YBrCl2O,35.1204,33.5998,-1.5205
NbSbAu2,70.7223,63.1214,-7.6009
Eu2GdGa,23.5122,25.373,1.8608
EuGdGa2,18.1026,20.0529,1.9503
Rb2Na4Te,20.3858,17.3547,-3.031
PmHoPd4,19.9577,22.3777,2.42
Ga2Ni2Ge,10.9617,10.3015,-0.6602
ScBeC2,27.5124,19.065,-8.4474
Hf2Zr3Fe2,83.263,65.6343,-17.6286
Ni3SbRh,27.2732,21.3302,-5.943
Na2CaCuF6,7.583,7.1541,-0.429
Fe2Pd3Au2,21.167,23.159,1.992
K3Ba12Au5,6.5242,7.7887,1.2644
Tc3(GeMo)2,46.7052,41.4988,-5.2064
NdY6In,16.8332,17.4878,0.6546
Dy4TlPd,14.8309,18.6238,3.7929
Ga2Ag2Au3,31.547,30.5317,-1.0153
BiPd4Pt,35.6988,33.5418,-2.157
TbTa5Ag2O15,2.2109,3.3937,1.1827
YHgAu,23.9607,24.8039,0.8432
NaCuTc3,64.6534,52.9777,-11.6757
Fe3RuI,23.8396,18.113,-5.7266
Ga2Pb2Au3,37.5899,38.6948,1.1049
Cu2TcMo,42.2341,32.7409,-9.4933
PuVSe3,44.6863,36.3726,-8.3137
TaMn(Cu3S4)2,39.3957,30.2364,-9.1593
NaCu3Tc,28.5662,24.6505,-3.9157
SmTmPd4,14.7644,18.2898,3.5254
CaCr2Tc,39.0445,32.8377,-6.2068
Cu3TcMo,36.879,28.1891,-8.6899
Cs2Rb2Ca,10.8254,10.9429,0.1175
Pr(NdIn)2,12.1036,15.0157,2.9121
Pr(HoIn)2,13.6825,17.0676,3.3852
SnBi3Pb,48.0389,48.724,0.685
TmAg4Hg,23.1635,20.3092,-2.8543
CeTmNi,24.054,25.0279,0.9739
LaIn2Fe,25.6151,21.1839,-4.4313
Ga2Ag3Sn2,21.8232,19.6705,-2.1526
CaCrNi2,21.3412,17.6221,-3.7191
ErSc3Ni,11.1666,11.8486,0.682
TbPaPd4,20.1609,23.6554,3.4945
RbNa2AgGe,19.6364,15.259,-4.3774
LiTa3W,31.0504,34.5265,3.4762
BaMoIr2Br,25.3511,24.6917,-0.6594
Ta2BeTe,31.8827,32.9238,1.0411
Cs2ScAlS4,33.7755,28.3567,-5.4188
LiTaW2,29.056,33.3326,4.2766
SiMoAs2Br,21.6467,19.1688,-2.4779
TlBiPd4,29.2346,31.1302,1.8956
Mg2UTiH6,10.0948,10.9614,0.8666
NpRuN,61.3528,57.4984,-3.8544
Tc3PRu,60.3342,51.2234,-9.1108
SrMoC2,39.1884,30.3831,-8.8053
Li3Ta,9.8386,11.8264,1.9878
TaTlCr,66.5637,52.6919,-13.8718
ScCoBRh2,29.8244,25.0222,-4.8021
GdHgPdPb,24.3768,26.5204,2.1436
Ac2(Al2Hg)3,13.1113,14.1314,1.0201
CaCrW,30.5848,29.4761,-1.1088
TmPd4Au,19.27,22.1563,2.8864
Cs3Co5Br12,6.7369,5.2906,-1.4463
ScPbS2Cl,48.5946,39.9731,-8.6215
Ga2Cu2Bi,19.6219,18.5222,-1.0998
AlInAs2Br,21.0598,18.1528,-2.907
Ir3Rh(AuS2)4,51.1254,43.6002,-7.5252
YTmPd2,21.5325,21.5998,0.0672
InTcBr2,34.3181,30.8671,-3.451
LiTa2W,28.4924,32.5957,4.1033
SnBi(PbS2)2,50.5923,43.0026,-7.5897
InPtBr2,34.3957,28.0803,-6.3154
InPbBr4,24.8485,23.8953,-0.9532
Ba4AgPd,5.0695,5.2649,0.1954
Sm3DyCd4,22.0824,23.8889,1.8065
Sr2AgSbS4,35.8142,27.0936,-8.7206
MgIn2SnBr6,12.3515,12.6833,0.3317
InCu4Br,12.0458,12.4545,0.4087
InRuBr2,20.2467,18.0937,-2.153
Ga2CuBi,21.4435,21.2498,-0.1937
YErSnAu,37.8783,34.4569,-3.4214
AlMoAu2,33.2684,32.4141,-0.8543
TaTl2Cr,62.9075,52.2432,-10.6643
ZrPb2I,52.8747,50.1771,-2.6976
LiYSn,25.4823,19.7252,-5.7571
LiYSn2,20.1777,17.2578,-2.9199
InPtBr,41.0643,33.2675,-7.7968
Al2MoAu,17.1044,18.4261,1.3218
Pa2Tl(PdS3)2,50.0604,42.2085,-7.852
Tb2SmSb,30.2918,30.8648,0.573
InNiBr3,11.7938,12.4683,0.6745
Cd2NiPd,17.39,17.8434,0.4534
AlMoAu2,33.3371,32.4141,-0.923
Na2In4Si,20.6825,19.1369,-1.5456
SmPaSb2,44.8308,44.4223,-0.4085
SbRuSe2,34.6458,30.09,-4.5558
Zn2InSbBr,24.8716,23.1728,-1.6988
TbSm2Sb3,34.0436,32.21,-1.8336
InIBr3,15.4087,15.8361,0.4274
Cs(YGa)2,10.6951,12.8923,2.1973
SbC2O,46.289,35.4879,-10.801
NbZn3B,39.2701,30.4799,-8.7901
Tl2In2Pb,38.7928,39.8406,1.0478
InIBr,9.809,15.9109,6.1019
BaScS2F,30.7025,25.8326,-4.8699
Li3YSn3,14.172,11.6979,-2.4741
In2BAu,19.0371,21.7105,2.6734
SrGdAgPb,31.2647,31.4741,0.2094
Cs2RbSbCl6,7.1473,7.8947,0.7475
LiLa2Zr,46.3681,38.5101,-7.858
CdTc2Mo,55.2709,49.1068,-6.164
TaCrW,62.7926,50.4582,-12.3344
AgSb4Pd,34.1781,29.138,-5.0401
InTcBr2,34.3281,30.8671,-3.4609
TlSb3Ir,47.5797,43.0861,-4.4936
Dy2LuSb,32.8046,33.4699,0.6653
PrHo6Sc,21.3015,22.8094,1.5078
Zn3InBr,11.4434,11.6196,0.1762
InSiAsBr2,22.4006,19.7324,-2.6682
InFeAsBr2,26.4412,23.2599,-3.1813
Hf2ScGe2,64.4636,45.9909,-18.4727
Cs2Ba2Sr,11.5698,12.4595,0.8897
InBiAsBr2,21.7129,22.2541,0.5411
NaIn3Br,19.2651,18.6937,-0.5714
Zn5Cr2,9.9804,8.4874,-1.493
Na(CdOs)2,30.1746,31.2246,1.05
NaCd2IrOs,31.3101,31.3215,0.0114
ZnInBr2,12.2302,13.5128,1.2826
In2AsBr,15.3128,16.1939,0.8811
TiNi2I,14.4206,14.3266,-0.094
CdTcMo2,35.949,34.4058,-1.5432
Cs2BiAuF6,18.465,19.7347,1.2697
AcLa3PrNd,35.4671,29.5277,-5.9395
LaFeAu,33.0323,30.8537,-2.1786
Cs2Hf(SiO3)3,5.8384,3.9047,-1.9337
CrInAsBr2,23.7909,21.5393,-2.2515
Cs2Hf(Si2O5)3,1.716,1.2322,-0.4838
K3Sn2Bi5,31.6753,32.0555,0.3802
TaZn3O3,28.8872,20.7822,-8.105
Er2ScAl,17.2682,19.6615,2.3934
CdIrOs2,37.1129,41.2801,4.1672
CdIrOs2,37.159,41.2801,4.1211
Hf4PdPt,113.0548,81.502,-31.5528
CdIr2Os,37.2421,42.3169,5.0748
AgTe4Pd,36.1156,33.9052,-2.2104
TmInBr3,12.1685,14.6179,2.4494
InNiBr2,12.713,13.7154,1.0023
Rb5(AsS3)2,36.3691,26.6575,-9.7116
Pa2InS6,53.766,43.8722,-9.8938
YEr2Tm,25.8325,28.883,3.0505
In2TcCBr,42.9212,34.946,-7.9753
U3Tl5S12,40.6562,32.5515,-8.1046
CeMgAlZn,14.5299,12.6315,-1.8984
Tb2Er2In,22.2073,25.0703,2.8631
UPaTa,57.6288,62.1776,4.5488
InOs2Br,29.84,31.9801,2.1401
GdInBr2,17.3682,19.2009,1.8327
TlCoAs2,24.268,23.5184,-0.7496
AlPbSe2,37.6925,33.5178,-4.1747
InAuBr,26.2151,27.4839,1.2688
InAu2Br,31.5423,32.9234,1.3811
AlPbSe2,37.4202,33.5178,-3.9024
InAs2PtBr,29.9191,24.5199,-5.3992
In2GePtBr,30.2518,25.5181,-4.7337
NaTm(InBr3)2,15.1226,13.6574,-1.4651
InCoPb2Br,36.098,33.5556,-2.5424
Sr2MnRu,31.239,29.2786,-1.9604
PrSc2V,34.1184,28.8547,-5.2637
InNiAs2Br,19.2989,16.6352,-2.6637
Cd2Cl,12.4752,13.9158,1.4405
Pa4RePd,44.8313,48.0193,3.188
ZnIn2NiBr,12.814,13.9309,1.1169
InCoAs2Br,16.4144,14.8655,-1.5489
AcScAgRh,37.1748,34.2157,-2.9591
La2PrIr,35.3184,30.4725,-4.846
SrLa2InBr,30.8277,24.4358,-6.3918
Pm(Er2In)2,21.5855,24.2403,2.6548
La2Tm2In,36.7281,32.884,-3.8441
Nd2Tl2In,30.0328,32.4894,2.4566
VNi2Rh,47.4956,38.7169,-8.7787
NaIn2PbBr5,18.7586,18.0746,-0.6839
NaSrIn2Br5,11.4484,11.1053,-0.3431
In5Br,18.4443,19.1,0.6557
Zr2AsBr,53.8739,47.5394,-6.3345
LiErSn,7.9548,12.4016,4.4469
ZrSc3As4,37.1088,28.4764,-8.6324
Y7Er2Tm3,20.7179,22.6122,1.8943
Mn2BeRh,55.0558,44.9827,-10.0731
RbNaTe2,27.2197,24.8437,-2.3761
TaCrRu,23.3474,20.8285,-2.5189
Cs2KSmF6,5.6092,7.9173,2.3081
Cs(NaSn3)2,21.8878,21.9819,0.0942
CaIn2Mo,15.3515,17.2879,1.9364
DyThSe4,40.5775,37.2582,-3.3194
In2As2Br,11.1521,12.5205,1.3685
AlTlPt,47.4734,41.3857,-6.0877
RbIn2SbCl6,10.1565,10.0562,-0.1004
CsNaSn4,21.9261,21.832,-0.0941
TlGeMo2,16.944,21.0005,4.0565
Th2Co3SiNi12,25.8428,22.9169,-2.9259
NaSr2Tb,19.6739,20.0081,0.3342
NdGdTe,31.2359,32.7054,1.4695
Th2Co12Si3Os,16.3211,17.4437,1.1226
SrPdAu6,39.2569,40.2785,1.0216
SrIn2Br,17.5176,17.1408,-0.3768
In(BiPt)2,56.5178,48.7541,-7.7637
K3Na2In5,16.4159,15.5718,-0.8441
In(PtPb)2,55.8574,47.8956,-7.9617
AgAs2Ru,22.1929,17.3429,-4.85
InCo2Br,17.7675,15.6533,-2.1142
Cs3InI8,22.3831,22.7135,0.3304
ScIn2Mo,19.0828,20.4326,1.3498
Tm3Mg12Zn5,4.6654,5.6221,0.9566
AgAsRu2,22.0684,19.9903,-2.0781
InFeBr,14.508,12.1414,-2.3666
InTc2PbBr,61.5021,52.4453,-9.0568
AgAsRu2,21.8593,19.9903,-1.869
InAsRuBr2,18.7836,16.9994,-1.7842
InNi3Br,10.6913,11.6486,0.9574
AgAsRu2,21.7678,19.9903,-1.7775
CaNi2Ir,22.7625,19.877,-2.8855
Na2InSiBr,19.234,16.2264,-3.0076
KScNi2,4.2702,7.0327,2.7625
Ca2Y2W,23.1199,15.6083,-7.5115
TaAg2Br,24.4986,23.7749,-0.7238
AcPdI4,28.1201,28.988,0.868
SbRuAu,36.7729,36.6059,-0.167
CeYTm2N4,24.9756,24.6552,-0.3205
Co2Sn6Rh,15.4903,15.9375,0.4472
YMnPbSe4,44.7202,37.4149,-7.3053
Tl8S6Cl,49.9239,43.3921,-6.5319
AgSbPt,55.2451,42.7248,-12.5203
GdYHg,26.2796,24.672,-1.6077
TaAsOs,29.9626,34.5978,4.6352
FePtSe2,47.0515,37.8807,-9.1707
Sm5Pb3S,31.4858,32.4325,0.9467
YTm2(PuSe2)3,46.7292,42.7183,-4.011
NiCl2,0.8347,3.767,2.9323
CoSi2As,22.1754,18.574,-3.6014
CoPOsS,27.7373,24.1223,-3.615
NbAlAs3,45.8332,36.6788,-9.1545
Th4IrPd,45.8027,48.7361,2.9334
ScTaAl,86.9678,71.9373,-15.0305
Th2MgZn3Pt4,51.0467,41.8413,-9.2054
TmScCdS4,38.5263,32.9412,-5.5852
SrCu2Ge,5.1574,8.109,2.9516
CoGe3Te,15.2469,15.8746,0.6277
Cr6Sn2HC,21.6755,18.7773,-2.8982
NaLiSi2Tc,35.1967,28.1287,-7.0681
Na(AgRh)2,37.4811,28.3995,-9.0816
Ca2NiPbSe,42.2692,34.9982,-7.271
BeIn2GeSb,19.1477,18.6226,-0.5252
Li2Ac2LaTl2,40.2526,40.1332,-0.1194
Th2SnPt,59.8234,56.7716,-3.0518
ThSnPt,58.3711,51.8855,-6.4855
YTm2Hg,27.7249,27.2887,-0.4362
Pr4PdPb,3.0199,5.5769,2.5571
Zr3Zn2Cd3,45.8354,40.704,-5.1314
Cs2NaPmCl6,10.2466,11.6071,1.3605
GaAgPb,21.3535,21.8542,0.5007
K2Ag2Au,26.6676,23.7439,-2.9237
SiSb2Ir,37.3656,33.4583,-3.9073
Li2BeCu,6.2915,4.9831,-1.3084
PmSm2DyBi5,41.6087,42.9365,1.3278
YLuSe3,19.978,15.8224,-4.1555
SiSbIr2,36.5191,36.3604,-0.1587
Tm4SbPd,25.4056,25.9824,0.5768
Nd(P2Ru3)2,11.6297,13.8411,2.2114
U2PaS6,59.1435,49.3476,-9.796
NbAlSi2Au,53.5527,43.954,-9.5987
ZnBiIr3,43.8237,41.7328,-2.0908
PmPu2S3,45.1723,39.7798,-5.3925
Li2BeCu,6.3689,4.9831,-1.3858
ZnBiIr,26.5396,27.3861,0.8465
Y6Er2Tm3,21.2814,24.5878,3.3064
Sc2TaAl,67.1394,55.6557,-11.4837
RbTbS14,51.1786,37.3864,-13.7922
NbTeCl3,39.1345,32.1633,-6.9711
Ba2Tl(SI)2,28.6868,24.8861,-3.8007
CaMoPb2,31.7941,33.645,1.8508
Er3(GaSn)2,20.3092,22.326,2.0168
Ba2Sr3Ga2,10.6097,9.1778,-1.4319
BaAc2Sb,43.1049,42.6814,-0.4234
CeTh3(NpS3)2,56.9441,50.1149,-6.8292
LiMn2InMo,48.7033,40.4557,-8.2476
Ac4TlPd,40.9007,43.6344,2.7337
AlMoOs2,30.4063,31.4312,1.025
CsGa3,9.7813,11.8985,2.1172
Tc3B,2.0166,4.9428,2.9262
HfSn3Sb,51.2933,41.0426,-10.2508
CeGa3,7.8534,10.4412,2.5879
Pr3BS6,24.9389,17.8101,-7.1288
TaAsOs,29.8078,34.5978,4.7899
VCo3Ru,25.4494,24.5027,-0.9467
TaAs2Os,25.0806,28.8611,3.7806
Tm2GeI2,22.135,24.1127,1.9777
Ce2ThS3,45.7323,40.0651,-5.6672
ScSnAu,34.2463,31.1133,-3.1331
Tl2GePt2,57.8397,48.7205,-9.1192
Ga3SbAs,16.6981,15.6839,-1.0142
LaMg2InH8,8.2071,7.1375,-1.0696
ScB3Pb,13.6526,15.0662,1.4136
Re2TeAs,33.6597,37.4956,3.8359
K3Na5Hg2,14.6681,12.1981,-2.4699
Na2Pb2Br,36.233,33.964,-2.269
NaBeSbI2,31.5694,28.7273,-2.8421
Pu2GePt2,55.8531,47.9518,-7.9013
TiPbSe2,37.7065,34.5891,-3.1174
Ba4PRh,10.7752,8.9215,-1.8537
Hf2(ZnIn)3,46.0829,36.1147,-9.9682
RbPAu4,33.4753,33.3818,-0.0935
Rb2InAg2,15.3167,12.641,-2.6757
Rb2In5Ag4,20.7783,18.5493,-2.229
Mo3RhI,25.3297,23.4155,-1.9142
LaPaP2Rh5,40.2069,31.3541,-8.8528
Nb3HgTe,95.0329,76.1558,-18.877
K4YBi3S8,41.4405,34.2596,-7.1809
CeTm4Pu3S8,49.2156,42.8745,-6.3411
Bi2OsI,44.5982,46.0848,1.4866
Ge3MoRu,13.9258,14.6638,0.738
Y2Er4Tm5,27.1535,29.2951,2.1416
Np2TlS4,51.1289,43.7009,-7.428
Y2ErTm12,23.7273,25.8912,2.1639
CeGdPd,23.7055,26.1569,2.4514
La3RuI,43.6143,32.8526,-10.7616
Be3Fe5,13.6121,9.5887,-4.0234
Si3SnRh3,25.281,16.2362,-9.0448
Tm2(ZnIn)3,17.6678,19.034,1.3662
Cu3(AgSe)2,22.1472,18.4035,-3.7437
Ti4GaP,2.8696,4.7138,1.8441
Ca6Ac2Sm,20.5496,22.1045,1.5549
Ho2IrPb2,40.5856,43.807,3.2215
Sr2Mg(ZnAg4)3,24.1072,19.7077,-4.3996
Er2Tm2Cu3,19.8798,21.8186,1.9388
Np2(ZnSn)3,28.1377,29.5375,1.3998
LaCe3S4,42.1413,33.5164,-8.6249
Cs3Nd2BiS6,41.6685,35.0378,-6.6308
Ho2TmHg2,13.7204,16.9533,3.2329
Gd2SiRh,29.9895,27.0493,-2.9401
ZrGeBi2,49.6707,48.5526,-1.1182
FeRuSe2,45.9075,35.6702,-10.2374
Ac2HoTl2,40.1038,43.3219,3.218
CaHgRu2,9.7126,11.6605,1.948
Zr4ZnP,59.3718,50.4892,-8.8826
Ho(ThIr)2,40.4062,45.1263,4.7201
PIBr4,13.2208,13.0313,-0.1895
NbSnAu2,64.1651,58.07,-6.0951
Ce2YTmN4,24.341,23.9922,-0.3488
NpTl2InCl6,16.0378,18.1919,2.1541
Rb3Ac(BiS3)2,42.221,35.1988,-7.0222
Rb2NaBiBr6,13.9436,14.3102,0.3666
Zr14(CuS8)3,65.9455,50.811,-15.1346
La(MnAl2)4,36.104,29.9794,-6.1246
CeSbIr2,38.7218,40.5673,1.8455
Sb2PbAu,47.5787,44.66,-2.9186
Ca4CoPb2,20.6586,21.0717,0.4131
NaTa2ZnIr,35.1644,32.9783,-2.1862
FeSbSe2,45.8329,36.5333,-9.2996
Ta6AlBi2,37.2441,40.9823,3.7382
Y12ErTm3,17.9955,19.3247,1.3292
CaCoPb2,32.5715,32.2716,-0.2998
PICl4,8.6783,7.8815,-0.7968
Ca2HgRh,12.091,10.2601,-1.8309
KMnTe2,48.4523,41.5131,-6.9391
ScGaSi,15.3597,14.4627,-0.897
La2TlI2,39.0401,34.7558,-4.2843
Ba2BeHg,2.7002,2.3621,-0.3381
KMn2Te,63.8492,52.4624,-11.3869
KRb2PPd,12.7697,10.2064,-2.5633
MnPt,94.2843,73.7074,-20.5769
Co2Re,8.6667,18.6079,9.9412
Pm2SmDyBi4,39.1426,41.4106,2.268
PmAsRu2,25.6389,24.3159,-1.323
Nd2NiSb4Ir3,37.8437,35.1994,-2.6442
NaLiSe,13.0367,7.8331,-5.2036
SbPd2I,27.0677,25.6406,-1.427
AgPd4Pb,25.6805,26.4759,0.7954
FeNiAu2Br,41.0523,35.659,-5.3933
YScAu2,22.6703,27.4024,4.7321
Pr2TlI2,16.4999,18.5218,2.0219
K2PRu,6.7593,7.5915,0.8322
Hf4GeRh,97.0103,67.9355,-29.0748
BiPd4Au,28.6588,30.7912,2.1324
Rb2BiBr,16.5955,17.0993,0.5037
NdSm2(YS2)3,36.0759,29.0343,-7.0416
Be3VNi,28.6138,23.3692,-5.2446
Sm2PtI2,35.8501,32.19,-3.6601
HfU6HAu2,65.2299,62.1328,-3.0971
BaBeHg,2.4019,2.43,0.0281
Be(VNi)2,47.3704,38.9867,-8.3837
NbVRh3,74.5525,56.1707,-18.3818
CdPd4Au,22.7354,24.6656,1.9302
In(PC)2,27.6751,19.799,-7.8761
ZnAgPb,26.0481,26.4085,0.3604
Sb2Pb2Au,48.6137,46.3517,-2.2619
AgSbPbAu,44.0911,41.4513,-2.6398
Fe2HW,11.7773,13.7127,1.9353
BeSI2N,39.9689,32.168,-7.8009
Mg2MnAlH8,13.1555,10.5957,-2.5598
BaBeHg,1.8028,2.43,0.6272
Nd3Sm3YS8,39.0999,31.6944,-7.4055
Cu(PC)2,26.9997,17.0657,-9.9339
Tl3Ag3(SbS3)2,36.9308,28.4976,-8.4332
PuCdPd4,26.6957,28.5709,1.8752
CdPd4Pb,23.557,25.513,1.956
Y2TlS,40.6792,38.9878,-1.6914
Ca2SbPt2,42.2667,31.2071,-11.0595
CaY(TeO4)2,22.3925,19.6046,-2.7879
CeY3(ScP3)2,35.1151,26.1587,-8.9564
Cd2In2Bi,24.4387,25.9946,1.5559
YNp2S5,45.0988,37.4606,-7.6382
NaNbPt2,80.7093,62.4766,-18.2328
Cu(Ni2Sb)2,23.1619,18.9772,-4.1847
CsSnP,12.1457,14.3722,2.2266
YNb2S5,71.5138,54.4103,-17.1035
Na2NbPt,66.8406,52.8301,-14.0105
VTe3Pd,49.3997,42.4063,-6.9934
Sm2Cu(SiNi4)3,9.8905,10.1108,0.2203
CeY(PaP2)2,28.9734,27.9433,-1.0301
Na2SrSc2,15.1049,14.3547,-0.7502
Ca2YMo,23.2146,16.3435,-6.8711
CePd4Pt,30.3326,28.5795,-1.7531
PRhS2Br,36.8324,30.2824,-6.55
La2In2Bi,34.5886,31.2509,-3.3376
CdInBi,23.8031,26.4509,2.6478
AlTc2Sb,53.2319,44.642,-8.5899
SrAl2ZnAu4,26.7303,28.0714,1.3412
SnGeSb2,30.0258,27.708,-2.3177
BiTeP2S,33.9447,33.2878,-0.6569
TiGa2Au,23.4189,19.1977,-4.2212
Fe2Cu2Pt3,61.5841,46.0708,-15.5133
CdSbPtN2,32.2644,27.9909,-4.2735
AcLa3Nd,44.5228,37.4968,-7.026
Ga2Fe2Co3,18.8965,15.336,-3.5605
AlTl2Se,38.0843,36.2649,-1.8193
MnSe2,65.3031,51.9862,-13.3169
RbZrSb2N,46.352,39.0242,-7.3278
ZrPaBi2,68.5334,67.1623,-1.3711
TaGeSb3,36.7786,33.1377,-3.6409
In2BiBr,23.5996,25.2812,1.6816
Th3(FeGe)2,30.5022,33.1093,2.607
K2NiHg,7.6947,7.4634,-0.2313
InSbI2N,23.8823,21.7747,-2.1076
AlTlSe2,37.7396,32.8614,-4.8781
Tc2GeP,49.4039,43.0967,-6.3072
Cs(GeCl2)2,4.0549,5.239,1.1841
Sr2MnTc,55.7412,46.9874,-8.7538
Fe2Ni2Pd3,34.651,27.8647,-6.7863
InPd4Pt,29.7863,27.3536,-2.4327
Tl2ReSb,47.7349,46.8587,-0.8762
Cs2TlIn2,25.7601,26.4755,0.7154
Ce6Ga3Au,16.9024,18.6853,1.7828
Sm12Tl6Ge,32.1073,33.2612,1.1539
Th3Zr2Bi3,62.6954,60.8713,-1.8242
NaSr2Sc,14.46,14.6024,0.1425
SrZr,34.5679,32.0889,-2.4791
Y2USe5,40.8496,35.4697,-5.3799
Pr2Cr(ReN3)2,66.0208,57.3848,-8.6359
Y5Ir3,0.0,5.3365,5.3365
VPd3Rh,39.8527,33.4099,-6.4428
Tl2Si2Pt,39.7307,33.111,-6.6197
Zr2(IrRu)3,52.9872,44.9598,-8.0274
Ca3Os,14.7008,16.688,1.9872
Sr2MnTc,55.7383,46.9874,-8.7509
Mg(IrRu)2,23.8458,22.5604,-1.2854
Fe2Pd3Rh2,21.7091,19.4737,-2.2354
DyPu7S8,59.8307,53.3923,-6.4384
UNbN2,51.7383,48.2242,-3.5141
Sr2YNi2,40.0652,35.4263,-4.6389
Tb2PrTi,13.8078,17.0173,3.2095
Tl3IBr,37.1308,37.397,0.2662
HoErPd4,14.9951,18.5758,3.5807
PrSmRu,30.4458,30.7438,0.298
ThCoIr,21.6319,30.9191,9.2872
HfInPd4,38.4659,33.3806,-5.0853
BiSbTe2N,37.5941,35.2466,-2.3476
Dy2Ge3Rh2,25.0344,22.1834,-2.8509
DyPa2Re,50.8096,55.225,4.4154
Y2ScPdO,66.6259,57.8681,-8.7579
K2NpTe4Pb,38.6119,37.2937,-1.3182
ScVTc2S,105.2697,83.4233,-21.8464
YTcHg2,61.6335,51.8518,-9.7816
HfScCd,56.1952,43.3956,-12.7996
Y2ScPdO,68.048,57.8681,-10.1799
LiReTe2,31.3664,30.693,-0.6734
SmUCo4,19.6181,22.3795,2.7614
Cd2AgAu,29.1944,28.3132,-0.8812
BaCaHf2,74.1024,52.8864,-21.216
Fe2BiPb,27.1181,26.4567,-0.6613
Be2CuGe2,7.0754,6.2522,-0.8232
Si2AsRu,27.9045,21.6535,-6.251
RbNbGe2Cl,38.3124,29.8369,-8.4755
SiAs2Ru,26.267,21.2713,-4.9957
ZrAg2I,42.5813,37.4622,-5.1191
Si2AsRu,27.5993,21.6535,-5.9457
Rb2CrSbBr6,20.2926,17.9622,-2.3304
RbGeSbBr6,17.2271,15.7936,-1.4336
SiAsRu,28.3963,24.7214,-3.6749
Cd3(Ag4Au)2,31.0907,27.1904,-3.9003
RbAcS2,37.9345,33.534,-4.4005
K2OsN,32.6012,30.5442,-2.057
LaDyMgCu,26.9539,22.3124,-4.6415
CdAgAu,32.5784,31.2735,-1.3049
BaBeHg2,1.6345,1.6663,0.0318
LaCuSb,33.7713,24.8932,-8.8781
Cd8Ag2Au,23.9129,23.1724,-0.7406
NbVNi2,70.698,57.9677,-12.7304
SrNbC3,68.3493,50.0089,-18.3404
Ti3Cu5,6.0697,7.9242,1.8546
LaCu4As,14.6258,13.8004,-0.8254
MnBe2Tl,38.071,34.481,-3.5901
CsIn2Ir,26.9366,28.8443,1.9076
Cd2Ag7Au,30.6434,26.1711,-4.4723
Ti6BiIr,15.7228,19.4695,3.7466
IrWAu,44.2189,47.9344,3.7154
IrW2Au,42.3022,47.0145,4.7122
Y2AgPd5,26.6055,23.4319,-3.1737
Y2TlPb5,42.3864,43.9692,1.5828
RbTl2S,36.9092,34.225,-2.6842
YCuTeAu2,41.6963,37.9507,-3.7455
LaCe3(DyTe3)2,34.7821,33.1548,-1.6273
SrTlNiS3,37.7509,30.6202,-7.1308
LiCuIr,11.6524,16.5159,4.8635
IrWAu2,44.5653,47.9656,3.4003
K(SbIr)2,37.6813,35.6234,-2.0579
Li2CuIr,12.8241,14.9098,2.0857
Na3MoOs,30.997,25.7718,-5.2252
CaSc2Ta,70.6532,56.7477,-13.9055
Li2CuIr,12.7454,14.9098,2.1644
ErTh4Sb5,50.8591,48.924,-1.9351
MnVS,86.6515,67.0292,-19.6223
Ba(GeSe)2,22.3603,19.5913,-2.7689
Li2Re2P,26.3408,24.3951,-1.9457
Cu2OsW,87.4734,72.5729,-14.9006
Tb(Y4In)3,17.0659,17.0091,-0.0568
CuOsW2,95.349,81.9506,-13.3984
ScBSBr2,24.9423,22.6158,-2.3265
LiTmInCo,15.2717,16.5088,1.2372
Cu3AsRh,16.9919,14.8178,-2.174
CuOs2W,96.1283,81.8599,-14.2684
ZrTiFe2,20.6724,19.2859,-1.3865
Pr4TlHg,5.5134,7.0907,1.5773
La2Dy2Hg,31.3811,27.5836,-3.7975
Cu2AsRh,18.0648,16.1493,-1.9155
ThU3S4,60.937,54.0152,-6.9218
SiPdRu2,16.2866,14.2291,-2.0575
RbVTe3,46.5281,40.1149,-6.4132
PaAl2GaPd4,19.7445,21.5841,1.8396
AlTl2Rh,38.7315,36.2463,-2.4851
Pm(Ho2Hg)2,19.656,21.7168,2.0608
AgSbAs4,19.8823,18.0107,-1.8716
HfNi2Te,49.4265,39.9291,-9.4974
ScTc2Ag,93.4469,76.1731,-17.2738
KNb(PSe4)2,45.2041,36.0482,-9.1559
ScTcAg2,77.8877,63.4621,-14.4256
BeTcAg2,40.2179,32.8518,-7.3661
Lu3ScS,39.6436,38.2333,-1.4102
CsBeV,49.274,39.5382,-9.7358
ZrTeAu2,58.5058,54.7507,-3.7551
AlTlRh,34.7033,31.1477,-3.5556
K2SmPuTe4,34.9439,34.4372,-0.5067
TaRhW2,40.6613,41.6411,0.9798
AlTlRh,34.0549,31.1477,-2.9072
PrTlAu4,38.8011,40.4342,1.633
PrDy4Ho,22.7609,25.2852,2.5243
PrThAu4,41.0193,43.1061,2.0868
AlTl2Rh,38.7055,36.2463,-2.4592
K2NiOs,18.7902,19.2963,0.5061
ErNbP,34.0706,31.9842,-2.0864
NbBi2Mo,61.9701,57.3117,-4.6583
Y2HfPdN,66.1098,51.7051,-14.4047
AlVPS2,62.7085,46.6759,-16.0326
YSc(SnPd2)2,39.8701,35.3423,-4.5279
BaFeOs,26.8479,22.2817,-4.5662
BaNb2I,77.7345,62.7863,-14.9482
La2Nd2Os,32.6279,30.6744,-1.9535
TaRh2W,43.2067,40.2469,-2.9598
Ce3PuS4,44.7759,37.7885,-6.9873
Ge2MoRh,20.4877,19.163,-1.3247
Al3FeAu,11.9734,13.2329,1.2596
Mg(MnCd)2,44.1779,37.5801,-6.5977
NpInRu4,25.8414,28.5675,2.7261
LiRe3,30.3915,34.9809,4.5894
TbCeYPb,29.3971,32.2256,2.8285
Sc3AuN,17.2029,14.2002,-3.0027
BaFeAsSe2,37.0674,31.0087,-6.0587
TaMoPb,36.2309,39.5842,3.3533
BaHgAs2Os,13.9675,14.0027,0.0352
YBP3,42.2983,35.6655,-6.6327
CaRuW2,34.9273,33.4802,-1.4471
Y(AgTe)3,28.869,26.3318,-2.5372
Ac2Al4ZnSi3,31.1686,28.1931,-2.9755
BeTlS3,45.5343,35.6774,-9.8569
SrBiIr2,38.4191,38.4762,0.0571
CeY3Al8,22.2127,17.9716,-4.2411
Be2PIr2,16.9958,18.3306,1.3348
YCo2BiSb,41.862,36.5069,-5.3551
NdY3Al8,22.4608,17.9507,-4.5101
SrGeBi2Mo,30.0949,31.0915,0.9966
Ba2GdAsO6,2.3703,4.2258,1.8556
TbY3Al8,22.3263,18.1255,-4.2008
ZrPbS2,46.8573,37.6716,-9.1857
RbSm(PO3)2,1.6433,0.9578,-0.6855
RbSb(PO3)2,11.1307,8.1045,-3.0262
BaRe3As,36.8391,33.972,-2.8671
La2PmHg2,21.7101,18.464,-3.2461
Be3TlS,22.2323,19.3185,-2.9138
Tm4In2N,22.5453,25.1266,2.5813
Ba2LaAs,16.3055,13.2835,-3.022