Formula,E_hull_DFT (eV/atom),E_hull_ML (eV/atom),Delta (ML - DFT)
SbTe2WAu,43.7092,41.1123,-2.5969
PaZnFeSn,33.0662,32.0318,-1.0344
YSiO,25.98,23.9657,-2.0143
PaFe4Sn,32.919,27.3202,-5.5988
BaPtBr2,28.7198,21.3261,-7.3936
ZnGaF,4.4926,7.3418,2.8492
CrCuAu2,28.8372,29.2056,0.3685
NaCdAsOs2,29.8698,29.9033,0.0336
Cs2Sn2Pt3,50.8856,40.0047,-10.8809
Li2AuBr,23.5846,23.1036,-0.481
Hf4TiGa3,75.3286,55.059,-20.2696
Co2OsBr,23.2762,21.3882,-1.8879
NaPbW2,34.1965,37.6664,3.4699
BeBiC2,40.0411,33.543,-6.4981
Li2LaTl,25.753,22.5822,-3.1708
Ba2EuZn,8.9731,10.2824,1.3093
YGaRu,11.5324,12.4287,0.8963
PrInPt2,47.7959,35.7099,-12.0861
EuZn,0.0,4.3904,4.3904
EuPt3,73.625,53.7909,-19.8341
CoOs2Br,32.5589,31.0974,-1.4615
LiAuBr,31.9799,31.3888,-0.5911
KOsF6,11.5272,13.8113,2.2841
BaNb3Al,94.215,75.6305,-18.5845
Cs3AgOs,30.5318,28.9728,-1.559
LaCo2Br,24.764,18.7746,-5.9895
Pr2RuO,31.0277,26.8562,-4.1715
LiAu2Br,35.8883,35.2137,-0.6746
Tm2SiPb,31.7374,32.7045,0.9671
TlBiPd2,35.1153,37.1237,2.0084
LiAuBr2,26.6801,26.2147,-0.4655
Zn2HgPt,25.9543,19.8756,-6.0788
Dy2Si4Ru5,22.9326,17.845,-5.0876
BaPt2Br,48.379,33.9837,-14.3953
LiDyIn3,15.0475,16.0732,1.0257
LiAu2Br,35.569,35.2137,-0.3553
LaTm4Tc,27.8386,29.1708,1.3321
LiThPb,30.1057,35.6923,5.5866
YSi2,27.8925,23.2573,-4.6352
TlGePd2,19.406,22.7806,3.3746
NaSm(SnSe2)2,34.4902,30.0733,-4.4169
Na(Y2S3)2,29.6624,23.1183,-6.544
AsPAuC,39.4143,30.0165,-9.3979
YCr3,22.649,17.6012,-5.0478
CsPCBr,22.3137,16.6107,-5.703
PtWBr2,39.8456,32.8043,-7.0413
LiThPb,30.1331,35.6923,5.5593
Tc2PPd2,37.6183,33.9365,-3.6818
AcP2(HPt3)2,54.8156,40.2827,-14.5329
NbNi7,23.0241,22.1393,-0.8848
YCr,53.1587,11.6934,-41.4654
SrReN3,54.0212,49.0001,-5.021
TlMoPOsRu,24.7587,25.6029,0.8442
PtWBr2,40.3141,32.8043,-7.5098
Sr6FeBi2,25.9155,25.1234,-0.7921
Sr2FeSn2,18.5214,17.6575,-0.8638
InRhW,35.9609,33.7792,-2.1817
CaY(TmHg2)2,11.1405,11.1213,-0.0192
NdSm4Tc,30.7057,30.4115,-0.2941
MnFeSe2,52.0969,41.1688,-10.9281
InBiTe2,39.4539,39.7448,0.2909
BaTh2Br11,12.8325,14.6918,1.8593
Mn3FeSe,72.5141,55.4796,-17.0345
CsNp2Br11,15.287,16.6321,1.345
Pa2CdI11,24.8442,25.4796,0.6354
Hf2TiRh,84.9515,61.8771,-23.0744
Fe2Si4Ni,22.3529,15.1863,-7.1666
InRe2Mo,32.2638,33.9333,1.6695
Tl2CdMo,34.634,35.9128,1.2789
PtW2Br,46.0751,41.2018,-4.8733
TlTc2Mo,63.4237,56.8694,-6.5543
TlPd3Au4,36.6408,38.2009,1.5601
Tl(InPd)2,20.9117,23.485,2.5734
Rb2MnSb2,39.1179,29.8599,-9.258
TlIn2Pd,26.8651,28.6619,1.7968
SiNiAu2,29.0419,29.0133,-0.0286
BePC,17.0448,13.1078,-3.9371
HfPaCd4,48.1296,42.4725,-5.6571
InRhW2,36.7263,36.6888,-0.0375
Tl2FePd,30.1841,31.7563,1.5722
NaBiSb,38.0218,34.2202,-3.8016
TcRu2W,60.4777,48.8572,-11.6205
Ni2PtCl,26.7735,21.5632,-5.2103
ZnI2Br,16.6312,16.9919,0.3607
AuSe3I,44.083,38.1872,-5.8958
TaCu2Mo,29.2709,24.8847,-4.3862
TbSm2YHg4,15.2977,14.6511,-0.6466
Pa2AgF11,9.3018,11.3515,2.0496
Ce2CuSi4Ir3,24.1523,23.2311,-0.9211
Li4Mg5,1.597,2.5501,0.9531
Li2MgAs,5.2673,4.4654,-0.8018
Sc2Fe,24.2618,25.2631,1.0013
Re2TeAs,33.4355,37.4661,4.0306
Y3AlO,28.1793,26.658,-1.5214
Zr2TlC,76.3775,64.2185,-12.159
SiBi2AuI,39.3564,38.562,-0.7944
SiBRu3,20.6953,16.1534,-4.5419
NaYTiI2,32.2409,25.9124,-6.3285
Tl(PdSe)3,31.1174,27.9758,-3.1416
Zr3TlC,81.7556,67.265,-14.4906
Cr2(ReMo2)3,14.08,15.6193,1.5392
ZrTlPd,55.3469,51.4362,-3.9106
ReSnTe2,31.7122,33.2752,1.563
Co2OsAu,26.7205,29.1825,2.462
Ta2MnAu,55.2367,52.7693,-2.4674
Ta3MnAu,53.266,50.3697,-2.8963
Na2AgRuF6,13.6189,12.8754,-0.7435
La2TlPd,37.909,32.5029,-5.4061
Y2Al,15.2508,13.1558,-2.0951
NiPbSe3,40.6575,35.4175,-5.24
CuTeOs2,27.3483,31.1288,3.7805
InRhW2,36.6251,36.6888,0.0637
NaSm(PbSe2)2,42.3494,37.843,-4.5063
Ni2PbSe,28.3034,27.9023,-0.401
Ni2SbSe,31.5907,25.5346,-6.056
Tl2PdSe,38.4851,38.1305,-0.3546
FeMo3As4,20.4243,20.2868,-0.1375
Na3Sm(USe3)2,42.4479,37.7253,-4.7226
La2Ta4Mo,39.1313,36.8111,-2.3202
CuTeOs2Pb,39.1879,39.9387,0.7508
Cr5Fe3,22.3837,16.4445,-5.9392
Mn(Fe3Sb)2,35.463,29.1812,-6.2818
Cu2TeOs,24.898,26.1049,1.2069
ErPu2(MoN2)3,17.7839,20.3083,2.5244
NaNiSbSe2,39.0104,29.8482,-9.1622
Ba2TlPd5Au2,18.7812,21.2605,2.4794
CuTe2Os,34.0268,33.8683,-0.1585
ReNi2Cl,34.2956,23.6942,-10.6015
NiSbAs,32.944,13.6229,-19.3211
CuMo3P,29.0075,21.1285,-7.8789
BaTh3(PN3)4,23.0214,21.2842,-1.7372
Ag2ClO2,13.9798,11.295,-2.6849
GdPtRh2,53.6146,40.5441,-13.0705
NdTlPd2,22.2016,25.3694,3.1678
ErCr2MoN4,16.1879,15.3735,-0.8145
NaFeSn2,20.9843,20.0908,-0.8935
Sr2Tl2Ag3,31.5605,28.7426,-2.8179
NdTlPd3,20.281,23.6187,3.3377
Hf2ScCd,78.2145,58.4879,-19.7265
KTbMn,39.1199,32.8101,-6.3098
AuC2I,46.4207,37.5867,-8.834
CeNiPb,31.1088,31.7523,0.6435
TaPtBr2,39.6136,32.4944,-7.1192
Sr2Tl3Au2,38.677,39.7797,1.1027
KRb(H3Au)2,7.8142,9.1267,1.3125
Li2Tm2ThBi2,33.6722,35.9456,2.2734
DyYN,28.3336,27.9072,-0.4265
CrReAs2,19.4971,19.292,-0.2051
Hf2NpF11,21.5783,17.6217,-3.9566
Ba2AlIr2,20.1414,20.4271,0.2857
CaCu2F11,3.8799,4.0728,0.1929
Ca4YAl,16.6932,13.9238,-2.7695
EuScI2,19.1274,20.2856,1.1582
Pr(Re2Ge)2,40.0396,35.5704,-4.4692
CePr2F11,0.0,0.5202,0.5202
CePu2F11,8.155,9.8575,1.7025
CeHg2F11,3.2966,4.1225,0.8259
BeSbTe2W,37.018,32.8698,-4.1482
Zn2SiCl,9.3623,8.2885,-1.0738
TiHgP2Os,11.1643,12.6588,1.4945
Sb3Mo,38.0488,31.5988,-6.45
TlTeBrN2,22.9203,22.8496,-0.0707
YTl2W,48.977,41.8009,-7.1761
Li2MgCo,6.6815,4.6199,-2.0616
Zr2RuW,72.5716,61.6801,-10.8915
Yb2Sn2Ru2C,30.0498,30.4643,0.4145
Zr2GeF11,14.7599,14.3501,-0.4098
Zr2SiS,65.9886,53.4714,-12.5172
SmTmHg4,8.8818,10.3474,1.4657
AcHf2F11,21.3354,17.5402,-3.7951
CrRhI,21.6736,18.4265,-3.2471
Tb4ErPu,34.6956,37.2268,2.5312
SrCrCl4,18.5413,17.4315,-1.1098
Cd(CuO)2,1.9518,5.4845,3.5327
ReNi2Cl,33.717,23.6942,-10.0228
Sr2Tl2Hg3,17.8992,18.6761,0.7769
Zr3(TiP)4,31.0863,25.9772,-5.1091
LaReTe2N,85.444,73.4654,-11.9786
Tl3AgPt,54.8194,47.938,-6.8814
Y2CrSi,48.4216,38.274,-10.1476
NiPb3C,46.13,42.419,-3.711
LiCe2Ge3Pd4,17.1569,16.9225,-0.2343
Ta2SbOs,40.0888,42.1805,2.0917
Gd6FeTe2,28.2771,29.1286,0.8514
CaYO2,43.8947,40.1573,-3.7374
CeAgSb,28.263,25.4457,-2.8173
TeAs2Rh,27.8016,26.2202,-1.5813
Cu2Si4Ni,12.425,9.7949,-2.6301
TeAsRh,16.6228,17.0739,0.4511
TaCo2Br,42.4633,29.6454,-12.8179
TaCo2Br,42.9076,29.6454,-13.2622
TeAsRh2,37.5017,30.5701,-6.9316
Si4NiRh2,22.8902,15.9144,-6.9758
TaSb2Os,42.2562,40.0915,-2.1647
KBa2Cu,5.3123,5.4477,0.1353
SrMg2TiH6,4.7952,4.8041,0.009
MnCr3Te4,36.7502,32.0718,-4.6784
Te2PW,90.0873,76.8565,-13.2308
TaSbOs2,41.7677,43.0402,1.2725
Er3Cr4MoN8,16.8608,16.2559,-0.605
Na2AgBr4,17.2134,15.0172,-2.1961
KNa2SiPt,32.9878,23.7535,-9.2343
YTlW,48.6795,39.0408,-9.6387
Ac(AlPd2)4,16.0357,18.1181,2.0825
TaSbOs2,41.5688,43.0402,1.4714
Cd3Fe,12.4069,14.1411,1.7341
YCr2Si,32.3641,25.0409,-7.3232
Ta2SbOs,40.0488,42.1805,2.1317
SbPtSe2,57.7579,43.8004,-13.9575
Ca2EuZr,34.6345,31.6864,-2.9481
Tm4AgPd5,23.4588,25.0497,1.5909
TeAs2Rh,27.8916,26.2202,-1.6713
Li2Ca2ErIn2,12.5554,12.9563,0.4009
YAl2,21.6294,17.1767,-4.4527
TaCo2Br,42.5215,29.6454,-12.8761
TbLu2Ni,24.7611,28.0107,3.2496
KMg2Cu,11.2639,8.5723,-2.6916
BaFeRu2,26.9081,20.6975,-6.2105
InRu,1.229,19.172,17.9429
LiAl4Rh,12.0764,10.3482,-1.7282
ZrGaTe4,41.0735,38.7772,-2.2963
TlAsRh,37.2698,32.8339,-4.4359
LiAl4Re,10.6902,12.1052,1.415
Co2TcBr,35.877,29.5351,-6.3419
NdYTh,34.8822,38.375,3.4928
CaTbSn,17.0026,19.4049,2.4024
FeSb2TeW,43.2543,37.4672,-5.7871
LiMn,39.9421,31.2735,-8.6685
CaTiFe2,14.6178,11.7951,-2.8227
TlFeTe2,33.7958,33.3408,-0.455
Ni2RuCl,8.6598,10.7789,2.1191
CaY5Al4,34.5734,25.585,-8.9884
Hf2MoBr,78.9741,53.5051,-25.469
Y2O3,6.2283,8.5717,2.3434
Na(Ga4Ag)2,14.1933,12.8211,-1.3722
CsSr2YPb,25.5682,24.6381,-0.9301
Na2CaAlO4,16.5806,15.4993,-1.0813
TeRhI2,31.1722,28.9053,-2.2669
La2ZrN,43.7725,33.6652,-10.1073
Tm(SnHg)2,11.1663,12.9171,1.7508
Zn2MoIr,24.2162,21.6892,-2.527
Os3Cl,27.4053,30.8082,3.4028
LuHfThSc,62.2398,54.5094,-7.7304
ZrCo2Br,36.8685,29.7184,-7.1501
Ac2Pm(SbRh2)3,48.0749,38.6785,-9.3964
SrAc(CuSb)2,29.4791,27.5653,-1.9138
LaNdYTh,39.2645,37.7585,-1.506
TmSnHg2,12.4832,14.1073,1.624
TlIr2Rh,47.0182,46.0247,-0.9934
MnTl2Tc,69.2409,60.9494,-8.2915
DyLuGa2,18.8791,21.1534,2.2744
La3EuFe,36.7186,26.8255,-9.8931
Y2Cr,18.9421,14.9386,-4.0035
Pu2HfAl6,33.6631,30.7225,-2.9406
Co2SiW,17.3563,18.214,0.8577
Pr6In2Sn,-0.0,1.5806,1.5806
Ac2MnHPt6,75.8667,57.45,-18.4167
Ti7Zn2Tc3,27.392,25.1142,-2.2778
Li2MgRu,5.4592,6.6606,1.2014
Tc3RuS,72.2284,58.4907,-13.7377
Tm2PaCu,33.8348,36.9276,3.0928
AcFe2Pt3,55.6303,43.0445,-12.5858
Pm2MnF11,9.6531,9.6227,-0.0304
IrRhAu,47.6225,45.2098,-2.4127
Na4InBi3Te8,38.1626,35.9054,-2.2573
YCr,0.0,11.6934,11.6934
UCdHg,29.3624,31.6184,2.2561
TcAg2Rh,51.6051,40.6462,-10.9589
LaU2F11,9.8144,10.501,0.6866
Te2RhI,39.7357,35.1676,-4.5681
Ca5Y3,15.9448,11.3444,-4.6004
CaY,19.5168,14.4231,-5.0937
BiMo3Rh,31.3427,30.175,-1.1676
Bi2MoF11,9.4271,10.7569,1.3297
TaRh2Se,45.5866,38.2397,-7.3469
Ta2MnCu,45.7988,42.4363,-3.3625
Dy2MoF11,3.4702,5.3923,1.9221
Si2SbAs,32.0352,24.0528,-7.9824
PmMo2F11,3.4143,4.698,1.2837
TmMo2F11,3.8466,5.1079,1.2613
NdMo2F11,3.4103,4.6884,1.2781
Ta2V3Mo7,55.3623,47.4161,-7.9463
LaMo2F11,5.284,5.194,-0.09
Te5Br,37.4018,35.3636,-2.0382
SiSbAs2,30.447,24.8295,-5.6175
Y3Cr,26.5001,22.4073,-4.0928
Rb3Ti3Ir2,15.0369,16.1027,1.0658
ReTe2N,89.904,80.5715,-9.3326
Dy2SiRu3,25.6792,22.7267,-2.9525
Sm2Er(MoN2)3,9.9798,12.5269,2.5471
Li2SbSe,22.886,18.9857,-3.9003
ScCd4Sn,22.4006,20.7034,-1.6972
CuAgTe,23.3335,22.9562,-0.3774
NdBi2F11,9.242,10.5949,1.3529
Nd2SmF11,3.318,5.0496,1.7316
Ca2YCr,29.0425,23.8334,-5.2091
CeSbI,30.1966,28.2668,-1.9298
TaSbSe,42.9744,39.521,-3.4534
RbReTe,11.8316,18.1278,6.2963
Ba3PPb,18.9837,16.7884,-2.1953
Nd3Ga(Ge3Pt)2,26.0234,22.2081,-3.8153
NbSbPd,68.8286,57.607,-11.2216
PmNd2F11,3.302,5.0537,1.7518
Nd2ThF11,5.3183,7.4277,2.1093
YVI2,47.188,40.468,-6.72
AcNd2F11,6.1465,7.9409,1.7944
Ac2NdF11,8.9816,10.4691,1.4876
NbSbPd,61.8689,57.607,-4.2619
AgW2Au,72.6045,61.9412,-10.6633
Cs2CeTm(PO4)3,0.0,0.0,0.0
Pm2HoF11,3.5335,5.2705,1.7371
Ca2YCr,29.0985,23.8334,-5.2651
Sr3NbO6,9.0468,10.0913,1.0445
Er4NbMo3N8,18.3534,19.781,1.4276
Sc8CdSn2,14.7972,12.9413,-1.8559
BaPPb,23.4357,23.4282,-0.0075
Ag2WAu,70.7431,56.5199,-14.2232
AcPm2F11,6.1408,7.9652,1.8244
Pr2BiF11,2.0064,3.8115,1.8051
PmU2F11,7.9459,9.9968,2.0509
TaCu2P,19.4477,18.5442,-0.9035
TlAgPtW2,78.0716,62.4192,-15.6523
Pu2PdF11,9.4843,11.1762,1.6918
Na(CuSn)2,48.7151,41.3844,-7.3308
Ni2BRu,7.6982,11.0176,3.3194
YbMg2Cu,14.076,13.0084,-1.0676
AgAsBr2,16.352,14.7535,-1.5986
Na2SnBi3,35.7649,35.1834,-0.5815
Na2Sn2Br,17.4455,17.2529,-0.1926
PrNd2F11,1.2079,2.9691,1.7612
HgMoPt2,48.7984,36.4203,-12.3781
AgAsBr2,16.4012,14.7535,-1.6477
IrPb3C,53.8315,50.3324,-3.4991
AlPtI3,34.209,27.2744,-6.9345
LiScSi,24.847,20.7646,-4.0824
ScMn,23.8881,14.8002,-9.0879
ZrAgBr2,38.1454,31.92,-6.2254
Co2SiSe,18.9236,16.268,-2.6556
AcRu2F11,8.4513,7.6995,-0.7518
Na2AgTe,28.1866,23.8398,-4.3468
PrTm2Bi,27.4486,29.5029,2.0543
Sc3Sb,10.0221,9.5216,-0.5005
Zr2AgBr,59.7951,49.6274,-10.1676
Fe2NiI,24.8607,19.6062,-5.2545
Ca2(Pr2Sm)3,6.8095,8.202,1.3925
InPbBr3,26.575,24.0344,-2.5406
Hf4TcPd,113.8523,84.1097,-29.7427
ZrAg2Br,43.2542,35.1285,-8.1257
Tm2Si2Ir2C,33.2767,31.2008,-2.0759
Sm2Dy2Th3,43.3582,46.9197,3.5615
Ac3In3Pt2,53.2337,47.4529,-5.7808
Na2In4Sn,21.3339,20.6647,-0.6691
KRb2NbI6,28.5602,26.3662,-2.194
YO2,3.1298,4.5838,1.4541
ErTm2(MoN2)3,10.7601,13.5475,2.7874
BIr3I,33.7346,35.3524,1.6178
Ca2ScMo,17.1926,17.0843,-0.1083
InGePt3,59.8009,43.4569,-16.344
SbPtSe2,57.5973,43.8004,-13.7969
GdGeOs,26.4219,29.9892,3.5673
YO,0.0,0.0,0.0
YAl5,14.7368,12.8495,-1.8873
Sb2As2Cl,20.224,15.8566,-4.3674
CaSc2Mo,20.1885,18.0163,-2.1722
Nd2AgBr,22.4643,22.5162,0.0519
Pr6Mg2In,-0.0,-0.0,0.0
BaPrFe2O5,16.1589,14.8515,-1.3075
LiHfSe3,56.9672,42.6201,-14.3471
TlAgPt4,73.3945,54.0103,-19.3842
CsPd2N,19.9798,18.8718,-1.108
YV3I,86.6685,68.3617,-18.3068
YSc4Os,13.7959,15.5695,1.7736
Li2MnAg,33.0476,25.4682,-7.5794
AcSc2F11,4.5995,5.1508,0.5513
Rb3BaCa,2.6058,2.3894,-0.2163
Cd2MoPb,26.9926,28.6957,1.7031
PmSn2F11,6.4971,6.6282,0.131
Na(In2Sn)2,20.7763,20.7413,-0.035
NaAcH6Pt,19.6776,16.3986,-3.279
IrOs2Br,35.7097,39.3342,3.6245
CrOsPb,35.2542,36.7728,1.5185
Na(In3Sn)2,20.6667,20.7207,0.054
Na2AcH8Pt,16.674,14.7584,-1.9156
CePd4Pt,24.8318,28.3556,3.5238
MnSN2,33.5643,26.624,-6.9403
LiCrOs2,23.7257,26.5449,2.8192
Li4TmP2,10.9421,8.9784,-1.9637
Ac2HPt,54.2341,49.1832,-5.0508
LiCr2Os,15.3957,16.8342,1.4385
AcHPt,50.8008,43.266,-7.5348
Co2WI2,16.6295,18.2044,1.5749
Tb4InGaAg2,24.236,24.1215,-0.1146
In2Ga2Ag,14.7963,14.5647,-0.2316
Na2Ac(H4Pt)3,21.007,17.1516,-3.8554
TbY5Hg4,27.5564,21.5062,-6.0502
ScCl,0.0,0.0,0.0
Y2Al,24.3391,13.1558,-11.1833
YAlSi,31.0639,25.2375,-5.8263
Co2ReRu,17.1882,21.3055,4.1173
NiPt,18.1228,15.9031,-2.2196
Pr2Nd3Pt2,34.0943,27.5697,-6.5246
Y3HoSb2C,35.9247,30.0714,-5.8533
Tl(Ag3Sb)2,36.5874,29.2104,-7.3769
Dy3YHo3Te8,33.1748,33.1649,-0.0099
Nb2PN,78.4362,64.8659,-13.5703
AlInMo,20.2092,18.3034,-1.9058
Ti2TcI,25.9337,24.4607,-1.473
Li2TeRu,14.6447,15.3717,0.7271
AcHPt,45.3825,43.266,-2.1165
In2Ga5Ag4,18.8473,16.5076,-2.3397
Zn2CoPd2,12.7127,11.4761,-1.2366
ZrSbRu2,36.5894,34.796,-1.7934
Sm2Th3Os2,53.1694,52.7513,-0.4181
Ca2YAl,21.9764,17.7253,-4.2512
Er3Cr(MoN3)2,12.8828,14.236,1.3532
Sr3LiPb,11.1648,13.4148,2.2501
K3Ca5I12,6.3881,7.8682,1.4802
InGaAg,17.0405,16.443,-0.5975
Sm3Ho7Tm2,28.169,30.0056,1.8366
RbLiWN3,5.1103,7.4703,2.36
CoHgAsBr2,13.589,10.989,-2.6001
BiWI3,33.2133,33.7411,0.5278
RbInCoHg2,5.4491,6.2173,0.7682
YCrSi2,33.4765,24.6658,-8.8108
Ac(H2Pt)2,30.0104,24.0573,-5.9531
Tb2HoF11,3.7459,5.532,1.7861
Cr2MoBr,25.6602,23.4641,-2.1961
Tb2ThF11,5.5301,7.696,2.1659
Tb2TmF11,3.9099,5.6843,1.7743
AgPt2Br,56.5877,40.7959,-15.7918
OsWO2,86.4668,67.2849,-19.1819
NaSr3(PmTe3)2,29.0843,28.5512,-0.5331
AlIn2Mo,19.7684,18.4626,-1.3059
ReSi2Te,28.4141,27.6789,-0.7352
Hf2GeP,67.3297,49.6143,-17.7154
ReSi2Te,28.8243,27.6789,-1.1455
BaTe2P,25.0221,24.4884,-0.5337
Na2SnBi,28.5424,28.1,-0.4424
Te2OsC,42.4597,38.8009,-3.6589
LaNdNiAg,28.2707,24.2448,-4.0259
YCr2Si,32.3196,25.0409,-7.2787
AlTlCu2,19.1375,18.4921,-0.6454
YAl,8.0553,4.2642,-3.7911
La2ReRh,48.3044,37.7497,-10.5547
Y2AlSi,41.2857,32.6204,-8.6653
CaYAlSi2,31.3207,24.9633,-6.3574
FeTcAs,61.0203,51.4858,-9.5345
YTl2W,48.9887,41.8009,-7.1878
Y3Al3Si,37.6937,28.5118,-9.1819
Mn2PtSN,69.413,53.3266,-16.0863
Zn3FeSe4,28.5267,23.5088,-5.0178
TbNd2Ag,26.7997,27.3206,0.5209
Ce3PdPt2,44.627,36.4549,-8.172
RbCoHg2,2.4509,3.0667,0.6158
Ca5Y,9.9049,8.7804,-1.1245
Sr(AgPb)2,33.0495,31.6809,-1.3686
Mg2PW2,56.3543,50.519,-5.8353
MoBr3F,12.8596,12.2961,-0.5635
UNi7,13.891,16.3119,2.4209
BaSrC2,35.0794,25.7349,-9.3445
Sr5C,21.6296,19.9279,-1.7017
YCr,46.8992,11.6934,-35.2058
KCa3Rh,12.4091,10.8317,-1.5774
ZrSc7,16.7675,15.9879,-0.7796
ScPd3,11.6213,18.2531,6.6319
Cs2NaSb2,30.2955,26.0455,-4.25
UInPd5,25.5511,27.4982,1.9471
PrThCu4,15.0726,16.8192,1.7466
Na2EuTl,31.9949,30.0251,-1.9698
KSeBr,23.5467,21.4367,-2.11
CsOsNOF5,19.1604,19.278,0.1175
Ac2Sm3Os2,50.0161,46.8962,-3.1199
CsAlSiO4,0.0,0.0,0.0
Tl2InAs,32.9199,34.1489,1.229
NaEuCdSn,22.8497,22.9701,0.1204
ZrGa3Te,33.6774,30.1153,-3.5621
NaIn2Sn,21.2644,18.6131,-2.6512
Na(CaSn)2,11.713,13.1683,1.4553
TbY2Pb,26.7285,29.4016,2.6732
Zr2GaTe4,52.641,46.3432,-6.2978
Y3HoSn2C,41.4605,32.2043,-9.2562
NaSbSeI2,33.26,28.1079,-5.1521
Al2InMo,15.2133,14.2795,-0.9339
YHo2InC,37.0329,32.5326,-4.5003
Si2OsRh,30.2931,25.0034,-5.2897
KTlPb,35.7946,34.3343,-1.4603
Si2OsRh,29.7212,25.0034,-4.7177
Sr6Pd2N,13.0266,13.3739,0.3472
Zn2As,8.5238,9.686,1.1622
Na2CdSn,20.4769,19.6601,-0.8168
SiOsRh,35.3443,31.5474,-3.7969
ZnCoPd2,19.0658,15.9771,-3.0887
TcPdPt4,77.9962,57.9013,-20.0949
ReTeMo,37.1525,35.5134,-1.6391
Li2MnTl,37.9559,32.5655,-5.3904
YCr3,31.386,17.6012,-13.7848
NiRuSe2,24.0811,23.1214,-0.9597
NaSnMo,36.2012,27.1387,-9.0625
Na3Cd2Sn,20.4259,18.801,-1.6249
NaSc2CdSn,21.9922,18.3112,-3.681
NaSb2TeW,39.3557,34.135,-5.2207
Er2CoGe3Pt4,44.3084,34.5006,-9.8078
TaAlHg2,10.3597,12.3942,2.0345
SiOs2Rh,36.9846,34.587,-2.3976
NaSnTe2,32.1101,31.1576,-0.9525
Na6Sn2Pb,26.7276,23.942,-2.7856
SrAs3,11.7761,9.2237,-2.5523
Na2Sn3Br8,14.7074,14.5841,-0.1233
SiTe2PtN,38.1943,32.9826,-5.2117
ZnCoPb,31.6216,25.6923,-5.9293
ZrAsCl,38.7052,33.9384,-4.7668
DyErIr2,35.09,39.3516,4.2615
Lu2CdIr,31.8428,35.5276,3.6848
NiAs2Cl,18.5261,14.2917,-4.2344
Nd2ErGe4Pt3,37.5085,30.678,-6.8305
KNiIr,21.9008,23.661,1.7603
CsNaEuSn,24.2995,24.0203,-0.2792
SnSb2TeP,31.6922,27.0768,-4.6154
Na3U(BiTe3)2,41.4392,39.6054,-1.8339
Sr2SnSe5,5.5403,3.9216,-1.6187
Li2MnW,35.244,30.9631,-4.2808
TlCdRe2C,76.8442,61.8269,-15.0173
Y5Cr4,41.0209,30.4008,-10.6201
Sr2Pm2Cd15,20.0721,19.8873,-0.1848
CaY2Cr,36.2251,26.9088,-9.3164
Na3(Cd4Sn)2,20.7218,19.9428,-0.7789
HfSb4Mo,56.1976,43.824,-12.3735
Y4Si5,34.6128,27.0585,-7.5543
CdSbOsSe2,42.0124,36.1019,-5.9105
ThH3PdO3,17.5487,17.0716,-0.4771
Ta4AlH2N3,6.1942,12.2112,6.0169
Ba3Sn7Ir2,19.0842,20.2004,1.1163
SiOs2Rh,36.965,34.587,-2.378
NaCaSnTe2,26.7783,25.0692,-1.7091
Ce(Mn2Fe)4,66.8348,52.083,-14.7518
NaSrGdSn,21.7428,22.1685,0.4256
Sm2Dy3Tm2,27.6581,29.9726,2.3145
Zr2FePb2,56.0269,50.0453,-5.9816
ScInCuRh,35.3643,28.4078,-6.9566
LiDyAgPt,36.5811,29.7288,-6.8522
Ba3Sn7Pt2,26.3942,22.5667,-3.8275
LiY2TlHg4,19.7283,16.6301,-3.0982
Ca3PdRh,16.4718,14.297,-2.1748
TmH2Ir,18.0094,20.5706,2.5612
Cs2Sc(CdS2)2,38.6706,33.4259,-5.2447
Y3Hg3Rh2,30.5822,21.9549,-8.6273
NaInReSn2,27.2561,26.4039,-0.8522
AlTePdI2,23.7613,22.0738,-1.6875
ScGe,0.0,0.0,0.0
YAl2Si,33.6038,25.4711,-8.1327
LiYTlHg,26.2101,23.6187,-2.5914
B3RhPb,25.5063,23.6286,-1.8778
Sm2Pu3Os2,73.0197,65.0028,-8.0169
AlSiAs,31.5481,24.3606,-7.1875
Ca2YAl,21.9227,17.7253,-4.1974
NaReSn,24.6445,25.4524,0.8079
Y3Al7Hg4,17.1715,13.6881,-3.4833
Mo6OsRu,25.208,22.1714,-3.0366
NaTm(SnBr4)2,14.5425,15.2631,0.7206
La2ReBr,32.4154,27.6241,-4.7913
Li2ZrMn,50.0092,40.558,-9.4511
Zr4W3,72.7592,66.916,-5.8432
Li2ZrMn,50.0553,40.558,-9.4973
Na2HfBi2,56.4873,47.152,-9.3352
MoW3F,34.2118,34.1228,-0.089
Ce6Al2Bi,23.1338,25.2585,2.1247
Ca6Al2Pb,6.84,8.9352,2.0952
Ca6Al2Sn,3.2231,5.6265,2.4033
LaY2CdHg,35.245,25.8048,-9.4401
Ca7NbSi4O17F,19.8587,16.4877,-3.3709
PtPb2Br,58.8888,48.4746,-10.4142
Cr2AgPb,26.1089,24.1058,-2.0031
LaFeSN2,23.0957,17.0991,-5.9966
Ba2NaHO,2.0381,3.8945,1.8564
V6CoNiH5,66.0185,50.8538,-15.1647
Al2SiAs,30.5465,22.5902,-7.9563
Li2AgMo,12.2245,11.7029,-0.5216
PrSm4Tc,25.7941,25.4958,-0.2983
Zn(NiGe)2,10.3256,7.6994,-2.6262
PrTm4Tc,18.4536,22.9853,4.5317
Tb4PrTc,26.806,27.7575,0.9515
TlMoAu2,36.6101,39.2119,2.6018
Tb2ZrGa,39.7584,37.8265,-1.9319
Li2AgMo,12.3643,11.7029,-0.6614
LiSc2Pb,15.9847,17.8826,1.898
PrTe2Ir,30.5233,31.6179,1.0946
YHgP2S,30.9144,25.8115,-5.103
Si2HgAs,20.588,15.3097,-5.2783
Ba2NbSb,43.164,36.3328,-6.8312
Th4TcPt,65.8304,61.8896,-3.9408
Si2HgAs,20.5725,15.3097,-5.2629
Ca3YHg4,7.5371,6.5088,-1.0282
Y2Cr,39.9512,14.9386,-25.0126
Er2Si4GePt3,38.7112,28.4589,-10.2523
CaPSCl2,24.8701,18.7379,-6.1322
ErTm(MoN2)2,10.7156,13.6111,2.8955
CaMn2Zn,54.8213,41.9394,-12.8819
NaY2GaHg,26.9868,20.4766,-6.5102
CuPO,9.3863,6.5481,-2.8383
AcHgTe,34.7095,35.0348,0.3253
AcH3Pt,25.7996,22.3745,-3.4251
BiSBrN2,26.7468,23.9505,-2.7963
Cd2Ni,15.1654,15.6941,0.5287
DyY3Hg4,21.8285,17.2945,-4.5341
CaMn2Zn,50.1535,41.9394,-8.2141
NaAlTlSn,24.8449,24.9186,0.0738
ErTa4Mo3N8,13.5935,16.6613,3.0678
Al2Fe6Co,8.1112,7.99,-0.1212
TaH2I3,13.3526,15.9234,2.5708
SrTcW,61.105,46.7348,-14.3702
TbSm(YHg)2,20.8955,18.3904,-2.505
CaZn,0.0,1.8978,1.8978
CeZr,54.4568,50.8366,-3.6202
Sr2TlPb,32.0962,33.7277,1.6315
AlCuN,11.5478,8.7054,-2.8423
ScS,48.3604,0.0,-48.3604
ScBi,12.474,21.2734,8.7994
SrTl2Br,30.7057,30.8883,0.1825
La2Ta2Sb,38.5454,32.2734,-6.2721
Y2Cr,39.8862,14.9386,-24.9476
Fe2(Co2Ni)3,34.5089,24.9746,-9.5343
Ba2Sr2Cd3,14.7137,12.7794,-1.9343
Th3Sn3H2,26.5578,31.43,4.8722
Sm(Er2Tm3)2,30.1374,32.1802,2.0428
CaZn2,5.0593,6.2683,1.209
Er5Pd2Pb,23.4704,27.0543,3.5839
NiGeN2,0.0,0.0,0.0
Th2Bi3Pb,57.6248,59.6345,2.0097
YCr,52.9941,11.6934,-41.3007
BC,29.5013,44.3654,14.8641
LaY(MgHg2)2,13.0294,9.9549,-3.0744
MnAs,41.1175,34.6146,-6.5029
NiPt,24.0777,15.9031,-8.1746
AcHPt2,60.285,47.6477,-12.6373
CrCo2HgN,48.0458,41.7806,-6.2652
Sr2Nd2In3,19.0612,20.7434,1.6822
SiAgBr,19.9013,15.7016,-4.1997