Formula,E_hull_DFT (eV/atom),E_hull_ML (eV/atom),Delta (ML - DFT)
GeSbTeN2,20.8852,19.3037,-1.5814
PrSm2InN,15.1994,15.3212,0.1218
TeRuS2N,54.4641,43.9015,-10.5625
Tm(NbB3)2,34.8094,31.1321,-3.6773
Nd2NiPb,26.6649,29.654,2.9891
AcZr(CuGe)2,31.9054,31.0063,-0.8991
DyY4Sc,15.2977,16.8776,1.5799
ThZnSi2Ir5,37.1117,36.3887,-0.723
LiAl2Br,11.2396,12.6305,1.3909
Ho4CuRu3,21.2839,23.8315,2.5476
La6Cu3Sb8Pt3,46.9299,36.2664,-10.6635
YHgCl,52.4835,50.1627,-2.3207
Dy2Si3IrPt4,49.1813,38.0468,-11.1346
Y3HgAu4,32.5331,32.0807,-0.4524
Li2Y(InHg)2,14.9939,13.6022,-1.3918
PuZr4Sc,78.4337,68.8443,-9.5895
K2TiN,3.0679,6.7435,3.6756
Y4Hg2Au,35.2729,30.8767,-4.3962
YHgAu,32.0188,24.8039,-7.2149
Hg2Ge2Pt,18.2428,14.4694,-3.7734
Ta4CuSe8,41.0815,37.3627,-3.7187
Y2HgAu2,38.7362,35.5618,-3.1745
DyTm(CuGe)4,11.725,13.3889,1.6638
YbFeSeO,21.0626,18.4763,-2.5863
NaScC,13.6037,10.8324,-2.7714
Ta2TiOs,29.7902,34.6813,4.8911
NaSiRu2Pb,31.8788,26.7681,-5.1108
TbTmZnGe,18.0157,20.7478,2.7321
ErZr4Sc,64.1118,55.1859,-8.9259
YPuGeRh,37.8641,34.5473,-3.3169
BaGeBrO2,11.2157,12.4178,1.2021
InNi2Rh,20.3019,19.0689,-1.233
Y2HgAu,36.6347,32.9308,-3.7039
BeAl2W,22.5436,21.222,-1.3215
Zr2CrTe,61.7928,54.058,-7.7349
ZnReTe2,44.4592,36.7519,-7.7073
Sc2AsW,27.4006,25.6371,-1.7635
Tl2Fe,34.4671,36.1955,1.7285
Y6In3Ru,13.0557,12.446,-0.6097
LaRuSe3,41.8183,33.5753,-8.243
AgPtS4,53.9195,40.0183,-13.9012
Tl3GaRu,37.3716,37.1915,-0.1801
SrCuSn,32.3685,29.6608,-2.7077
AcVSb2,70.5792,60.699,-9.8802
TlGaRu3,24.5719,25.1012,0.5293
Sr3CuPt3,39.7834,32.8795,-6.9038
Tl2FePb,41.5838,41.0804,-0.5035
AgS4I,43.6945,34.0561,-9.6384
AgHgS4,40.0056,29.6519,-10.3537
IrRuC2,41.4107,34.2345,-7.1762
AsWSe,52.2386,51.6096,-0.629
ZnCdTcP2,27.0207,23.7334,-3.2873
YHg2Au,23.9658,22.6902,-1.2755
AsS4Br,37.6944,29.4161,-8.2783
Tm4ZnCu3,18.5016,21.1799,2.6783
YHg6Pb,12.5428,11.6917,-0.8511
Na2Te2Pb,36.7508,34.2691,-2.4818
Tm2CuRu,9.2783,14.9559,5.6776
SrY2HgPd,27.6308,22.9321,-4.6986
AsWSe,52.9516,51.6096,-1.3421
HgSbSeN2,21.5756,17.6122,-3.9633
CaAcCuPt,42.7367,36.1279,-6.6088
LiBiSb2,32.8296,31.1618,-1.6678
CdRu2C,24.0474,23.6528,-0.3947
RePS2Cl,49.5325,37.3561,-12.1764
Sc2AsW,27.4155,25.6371,-1.7783
CaThAu4,42.7098,44.4076,1.6979
Nd2Er3Th2,38.534,41.1315,2.5975
Mn5Nb2VB2,81.4558,64.9435,-16.5123
Cs3AgO,20.4893,19.4649,-1.0243
CsNaCo3,15.4388,14.7093,-0.7295
AlMo2Pt,40.5042,30.5782,-9.9259
YInHg2,17.2271,15.6547,-1.5723
Ca2YHgC,24.0872,19.5561,-4.5311
Nd2Ho3Th2,38.0794,40.6498,2.5704
Ca2As4Rh5,26.2145,20.4519,-5.7626
TaOsPb2,46.2683,50.9247,4.6564
Re2BiO,53.4891,51.8032,-1.6859
AlMo2Pt,33.4756,30.5782,-2.8973
Ni2PRu,11.0028,12.1075,1.1046
CaTb(ZrAs2)2,25.7451,25.3297,-0.4153
NaAgPb2,40.2436,38.5375,-1.706
GdGeBr,7.5578,12.273,4.7152
Y3InHg,28.0181,23.8982,-4.1199
Na(AgPb)2,38.5333,35.3634,-3.1699
TlCdBr2,22.787,23.3477,0.5607
Y5InHg3,25.4858,21.0381,-4.4477
NaAgPb,36.0967,33.1094,-2.9873
NaCaLa2Pt,44.1078,32.6675,-11.4403
Al2ZnCu6,7.9034,7.6504,-0.2529
SrMnZn3,28.3741,24.3672,-4.0069
SrNiMo,29.6246,26.8509,-2.7737
Tl3CdBr4,24.0619,24.4805,0.4186
CaCe2(InAu)3,27.8356,29.4547,1.6191
CaLa4In15,25.0144,22.869,-2.1455
SrCa(SnPt)4,45.8702,35.7436,-10.1266
CdIrN2,10.9636,15.2463,4.2827
NbAlB,26.9572,27.1196,0.1624
TaOsPb2,40.3932,50.9247,10.5315
NaTc,34.4293,30.9156,-3.5137
Tb2Zn3Ge2,13.1676,14.6084,1.4408
LaTb2(ZnGe)2,19.3354,19.9088,0.5734
CsCa(NbBr3)6,36.0204,30.4307,-5.5897
SiPb2,40.3749,39.7777,-0.5972
MnInS2,52.3379,41.2082,-11.1297
Ac2MgGa2,18.5101,21.6617,3.1516
Ca2As2Rh,10.55,10.0811,-0.4689
TaOs2Pb,43.7424,47.4893,3.7468
SbMo2As,21.6048,22.9204,1.3156
Ca4Co3NiGe4,14.79,13.1417,-1.6483
TlFePb,38.6312,37.8694,-0.7618
MnNiPb2,78.5652,72.5274,-6.0378
MnNiPb2,73.5761,72.5274,-1.0487
CeGdGe,20.7202,23.5768,2.8566
GdMgGe,0.0,2.4804,2.4804
Pr3Fe5Se12,16.9691,11.5373,-5.4318
GdFeGe,12.4777,15.4288,2.9511
GdGe2Bi,25.8635,28.1395,2.276
Y2InHg6,13.0241,11.3426,-1.6815
Rb2NaSmCl6,1.8194,3.2953,1.4759
FeNiPb,49.6488,41.4982,-8.1506
NiOsC,11.9913,15.0501,3.0588
TaInSi,24.4927,24.6268,0.1341
TlFePb2,41.9752,41.3559,-0.6193
Gd2TcGe,39.8891,37.6433,-2.2458
TaInSi,24.022,24.6268,0.6048
GdFeGe2,11.4914,14.3503,2.8589
GdTiGe,0.0,1.9632,1.9632
LiU(AlP)2,34.796,30.6474,-4.1486
Tc(AgI)2,38.0409,31.8876,-6.1533
Gd2(Mg2Ge)3,9.8219,9.978,0.1561
GdGeCl,4.8073,9.5626,4.7553
YbGdGe,1.77,6.5637,4.7937
GdScGe2,24.9268,21.4268,-3.5001
FeNiPb3,51.1998,45.9871,-5.2127
Gd2FeGe,16.6903,19.1492,2.4589
CuSbSeN2,21.6935,18.852,-2.8415
FeNiPb2,50.4908,44.4301,-6.0607
Gd2Ge2Ru2C,24.8829,24.9945,0.1117
TlFePb2,41.8244,41.3559,-0.4685
GdTcGe2,34.7738,32.9986,-1.7752
K(SnBi)2,29.0234,30.4472,1.4238
KAcPt,50.5408,44.5401,-6.0007
GdGeW,0.0,1.7401,1.7401
KZrAu2,47.5652,45.4591,-2.1061
Gd2GeSe,27.6316,27.8272,0.1956
GdScCuGe,27.8014,25.1947,-2.6068
Y2InHg4,16.8785,14.897,-1.9815
Mn2NiPb,90.1538,78.5701,-11.5837
PrGd2Ge,15.4203,17.6462,2.2259
Li2AlSi2Ir5,24.0398,26.1049,2.0651
GdScAgGe,30.5489,25.2856,-5.2633
Y3InHg12,10.2954,8.6637,-1.6317
Nd7Pb3C2,37.1998,34.6462,-2.5536
LuFe4Sb,19.6133,18.557,-1.0563
ReRu2I,24.2233,26.5112,2.2879
ScInPb2,33.6129,34.2562,0.6433
BeSbS2N,50.3325,38.3032,-12.0293
MnBe2Pb,38.4354,34.8753,-3.5601
Pr5Nd2Y3,3.459,4.6363,1.1773
GdSiGe2,15.4696,16.1262,0.6566
GdSnGe2,17.3698,19.7319,2.3621
Gd2FeGe,16.7558,19.1492,2.3935
Gd2GeN,16.0858,19.3315,3.2457
BeFe2Pb,25.0593,20.6993,-4.36
Gd3In3Ge2Ru,19.6224,21.4318,1.8094
GdTiGe2,16.3583,15.7616,-0.5967
ZrCrS4,48.0322,36.2992,-11.7329
Mo3OsW,78.1217,65.8053,-12.3164
SrRe2Te,43.1987,37.9217,-5.277
BeFePb2,36.4089,33.3211,-3.0878
YInHg2,17.3379,15.6547,-1.6832
AlSiIrRu,33.0842,29.3163,-3.7679
Gd3Al3Ge2Pt,30.7809,26.2421,-4.5388
Mn2BeNi,76.5805,66.162,-10.4185
Mn2BePb,63.4956,54.3888,-9.1068
PmYCo2,31.9109,29.2779,-2.633
Pr2Ho3Er8,24.5801,25.3735,0.7933
Gd3Al3ReGe2,27.129,24.9326,-2.1963
PrThGe3,11.688,14.5457,2.8577
SiRh3I,37.3937,27.3157,-10.078
AcLa2PtO5,32.6738,28.3553,-4.3185
BePb3I,45.043,44.9723,-0.0708
Cu2SiB2Ir5,25.3598,24.8007,-0.5591
K2HgTe,15.7937,14.9154,-0.8783
Mn2BePb,63.2531,54.3888,-8.8644
CsThTe2Au,38.9055,40.7359,1.8304
YTlHg,30.1077,31.4597,1.352
MnBePb2,51.5458,47.6306,-3.9153
Ac2Zn3Pt4Au,54.9692,45.68,-9.2892
MgSn(H3Ru)2,2.2303,3.5239,1.2936
Co(CuSn)2,44.3288,37.9956,-6.3332
CaI2,12.0679,17.0511,4.9832
ScIrRh2Pb,48.1884,37.1371,-11.0513
Y2TlHg,37.5975,33.7874,-3.8101
CaCdAs2Pd5,14.1982,15.6228,1.4246
Y2TlHg,37.7414,33.7874,-3.954
Ca3YCd4,15.3438,14.9634,-0.3804
Sc3AlIn,9.6986,10.0381,0.3395
YZrTlHg,49.6949,44.3801,-5.3149
K3(GeSe2)2,23.0279,19.9662,-3.0616
Ce2MgIn2,14.4889,17.1394,2.6505
K3(GeAs2)2,6.52,7.4557,0.9356
TlInCu3,18.9657,19.7933,0.8276
RbCaNpI6,22.6391,23.2622,0.6231
CaZn3Pt2,27.5518,21.1217,-6.4301
ScRh2SeS,49.9426,38.7798,-11.1627
ScBi2Pb,41.5649,43.1541,1.5892
CaPrCuSe3,33.0539,26.2524,-6.8016
UTa2AlC4,38.4767,32.042,-6.4346
Er2PtPb,49.4822,45.2194,-4.2628
Pr2Ru(CN3)2,34.5722,29.1136,-5.4586
Co3CuSn,28.8278,25.7351,-3.0927
UAl2Rh,30.3711,29.8863,-0.4848
U3Al7Ag2,24.0291,24.6313,0.6022
UAlIn,30.623,33.5843,2.9613
UAlCd,30.3665,33.1458,2.7794
Ca2ThNi9,9.3486,9.0765,-0.2721
U2AlGa8,18.7158,19.9716,1.2558
Ca2Tm(Zn3Pt2)3,35.9087,27.3725,-8.5362
CuGeSb2,26.8686,24.6002,-2.2683
LiInOs,22.5262,23.5786,1.0524
TmCu9Au2,15.3714,17.0445,1.6732
BaY2Os,43.7304,40.3756,-3.3549
Li5In4Pb,15.0746,14.3332,-0.7414
ScIBr3,2.9833,3.6883,0.705
K3BaNa8,19.4176,16.0153,-3.4023
LiTa4In,29.1713,31.0235,1.8521
Li2In2Pb,17.6566,17.4644,-0.1922
Si2Ni2Bi,14.2721,14.9149,0.6428
LiLuInRu,18.3892,20.223,1.8338
CaTh(AsPd)2,20.0083,22.2291,2.2208
NaLiTbIn,18.9596,18.3009,-0.6588
Zr2FeSi4Ir3,38.2387,33.4878,-4.7509
LiScInPb,20.7114,21.0146,0.3032
InAg2W,63.9066,49.7931,-14.1134
C2ICl,36.9406,26.6707,-10.2698
Th6Ge3P2S,39.7361,41.6796,1.9435
LiCaIn6,15.9669,16.325,0.3581
YPuAgRh,41.2657,37.8518,-3.4139
Ni2SbAu,30.8503,28.2522,-2.5981
La2TmMg2,24.2328,21.1353,-3.0975
AlRe3,20.5551,27.0211,6.466
Li2Dy2ErIn5,15.5175,16.7206,1.2031
Ca2Tm(HfAs2)3,43.1721,33.4847,-9.6874
Na2Pb3I8,29.2618,29.3276,0.0658
Ca3NdPb12,41.5863,42.4535,0.8672
Li2In2Cu,8.5913,8.3232,-0.2681
ZnGaGe2,5.875,8.6014,2.7264
ScNbPd,37.307,30.902,-6.405
FeOsW2,95.2767,79.9626,-15.3142
NbGe2BC,54.2048,43.1964,-11.0084
LiInCu,10.6174,10.7032,0.0858
NbAlB,41.5572,27.1196,-14.4376
TbTm3N4,13.4424,15.3505,1.908
RbYHg2,12.8531,10.6934,-2.1598
Pr2Th4Pb3N2,39.513,39.3445,-0.1685
LiGdIn2,18.1792,19.0301,0.8509
Zn(GaGe)2,5.746,7.3948,1.6488
In2AgW,61.0005,48.9124,-12.0881
CsGeO3,9.1236,8.7557,-0.3679
Sc3ICl,21.8928,20.5871,-1.3057
Li(DyIn2)3,20.6332,22.1008,1.4676
Y2Hg,19.6788,17.3828,-2.2961
K2TePt,38.8203,30.8102,-8.0102
InAgW2,65.5321,54.8343,-10.6977
Pr2InSi2,2.056,2.4141,0.358
Li4TmIn5,14.783,14.2579,-0.5252
Mn2Fe2Co3,44.9594,35.4578,-9.5016
InAg2W,63.8839,49.7931,-14.0908
Pr6GaPd2,0.0,0.0,0.0
Mn2Ga2Fe3,40.316,31.4366,-8.8794
Y2HgS2,41.7588,31.2372,-10.5216
LiIn2W,21.1693,22.1707,1.0014
CsNa2TlHg4,15.1963,14.4218,-0.7745
CsCeO3,9.8532,9.3803,-0.473
LiLuIn,19.2588,19.8282,0.5694
LiGdIn4,18.8123,19.3518,0.5395
K2BeW,20.0969,18.5328,-1.5641
RbYHgS3,31.3189,22.455,-8.8639
YHg3S,21.6752,16.3856,-5.2896
LiInTe3,30.4468,27.6767,-2.77
Ca2TaHg,11.8938,14.0696,2.1758
LiGdLuIn,21.7377,22.8879,1.1502
YPu2Rh9,49.544,39.5982,-9.9459
Cs4LaPa3O12,18.4213,19.2435,0.8222
NaLiIn2Se,23.5362,19.6943,-3.8418
Ca2La(InPt)3,42.432,33.1757,-9.2562
TeAsCl4,13.4083,12.3601,-1.0482
Mo2Pd3Rh2,30.2969,24.6695,-5.6274
AsPAuC,34.126,30.2976,-3.8284
NiPtI3,33.6613,28.6708,-4.9905
Cs2NpPdO6,17.9979,18.6936,0.6957
CaCe7Sb8,32.9922,30.4625,-2.5297
Li2YbIn,14.8847,14.9035,0.0188
Mo3(RuRh)2,37.9294,32.3458,-5.5836
Na2Al2As3,14.5553,11.4723,-3.083
Mo3(RuPt)2,39.1162,32.5037,-6.6126
Na2Al2Sb3,23.4331,20.5816,-2.8515
Sr2Ca(Cd3Pd2)3,17.9334,17.8385,-0.0949
TlZnMo,25.6711,27.1688,1.4977
Ta3(MoRh)2,33.8461,33.5071,-0.339
Tm2Mg2Pd,16.4365,19.0752,2.6388
Sc2SiMo,29.2157,27.6196,-1.5961
NaFePb,24.2043,24.1531,-0.0512
LiInMo2,14.1703,15.7753,1.605
MnNbCl3,50.6619,40.2206,-10.4413
ScFePd2,24.731,24.6186,-0.1124
CaAcLa4,41.8188,34.5369,-7.2819
TbY4Hg,20.6924,19.1786,-1.5138
KNa3Ge,13.174,11.034,-2.14
AlPb2W,37.5842,39.2951,1.711
Cu4RuRh2,27.6645,22.5965,-5.0679
Be2RhPb,21.3815,20.6146,-0.767
Na2Pm2Tl3,35.6685,35.9828,0.3143
GdYHg4,12.9257,12.1782,-0.7475
NaCdSn2,21.4854,21.5981,0.1128
CeIn2GaCl6,4.6289,6.5206,1.8917
YHg3,9.9844,8.5614,-1.4229
Cs2LaNF,21.5632,18.8851,-2.6781
CdAuBr2,22.3158,23.5416,1.2258
AgBP2S,20.7342,19.5459,-1.1883
TiReN3,61.0811,55.2177,-5.8634
NiSbBr2,26.8438,22.8051,-4.0388
Sc3HgO,34.4486,34.8399,0.3913
PrSiRu2N,32.0418,29.0257,-3.0161
Yb(AlGe)2,27.5742,23.0651,-4.5091
Cs2SmCoO4,3.9632,6.3691,2.4058
K2Na2Sr3,16.26,15.1697,-1.0903
OsPtI3,41.3665,36.1145,-5.2521
K3(RbNa)2,12.7463,10.6415,-2.1048
SrTi2Cr,21.759,20.8173,-0.9417
YGaHg3,12.1316,10.3943,-1.7373
LiIn2Sb,22.2977,20.1102,-2.1875
LiErMnIn,38.387,33.8718,-4.5152
LiTaIn,20.9044,21.9334,1.029
FeReW2,40.2982,39.7508,-0.5474
LiInRe,22.1308,23.6149,1.4841
Na2Pr2Tl3,27.2141,27.5067,0.2925
YGa2Hg,16.5139,15.4076,-1.1063
Cs2TcO6,15.458,14.9761,-0.4819
Eu2Ag2Pb,27.6281,26.4458,-1.1823
Cs5Hg2AuO,23.2426,22.4684,-0.7742
LiScMnIn,32.6863,27.7104,-4.9759
Li3InRu,9.0738,8.9398,-0.134
KBeW2,26.7623,27.1709,0.4086
Li2CrIn,5.405,5.9119,0.5069
PrY2(SnHg)2,21.0731,17.9444,-3.1287
YNi4Hg,30.4589,28.3447,-2.1142
Li2Ca2TbIn5,11.2476,12.2268,0.9792
Li2InCu,5.437,6.7505,1.3135
Tb8As4PS3,27.0953,25.1631,-1.9321
LiInW3,30.9756,31.6952,0.7195
KSr3Pd,6.4587,9.8658,3.4071
Ge2MoOs,22.6588,23.2342,0.5754
HoTl2Cu,34.107,35.8674,1.7604
Cd2OsW,94.0203,77.833,-16.1873
LiThIn2,27.5563,28.7075,1.1512
CdTe4Se,39.8022,36.1542,-3.648
Hg2IrI,15.1072,16.8825,1.7753
LiIn4Pb,22.8858,23.0244,0.1386
Y3(Ag2Hg)2,30.4763,24.3446,-6.1317
Cd2OsW,94.1805,77.833,-16.3475
TlTcI2,48.0579,43.9344,-4.1234
Li5InPb4,23.4658,24.1694,0.7036
Pr12YHo7,9.1594,9.4493,0.2899
CdOsW2,98.5684,85.112,-13.4565
Pr3NdNi3,11.3335,9.823,-1.5106
Ca3CdGe3,4.776,8.4618,3.6859
CaThInI6,20.9163,21.7809,0.8646
LiUIn2,28.3563,29.3583,1.0021
KBeW2,26.9401,27.1709,0.2307
NbPtSe2,82.1096,64.3082,-17.8014
KRbRh2,26.1395,19.0309,-7.1085
NaSF4,18.0388,15.3653,-2.6735
Sc3CdN,1.6232,3.9975,2.3743
Zn3SnBr,11.6758,11.9895,0.3137
TlP2Br,18.0037,15.2829,-2.7209
Zr2NbSb,95.5527,79.9057,-15.647
SrWSe3,47.8923,34.2073,-13.685
LaRu2Rh,44.6323,36.307,-8.3253
Cs3PdO4,17.8842,17.9673,0.0832
Tl2PBr,29.1361,29.6434,0.5073
Tl2PBr,29.2478,29.6434,0.3957
Li3InRe,14.4865,14.3649,-0.1217
Rb(Cd2Sn3)2,18.4663,18.8931,0.4268
YHgPd2C,30.071,24.8217,-5.2493
Al(PtAu)2,50.246,42.5541,-7.6919
Na2Si2Au3,31.3132,28.8353,-2.4779
Li3TaIn,13.6196,13.6805,0.0609
CaTb3(SmRh3)2,35.041,28.7981,-6.2429
Na2Sr3In2,18.2394,18.193,-0.0464
Na3(CdPb)2,30.9376,29.6217,-1.3158
NbRePb2,72.5677,67.134,-5.4337
AcTb4Sc,29.9632,31.6472,1.684
LaCoF2,12.5386,11.0981,-1.4405
NpTlInCl6,12.5555,14.7046,2.149
TiCoRh,3.1167,2.8507,-0.266
LiInSn,12.0276,12.6853,0.6576
As3AuCl,18.4522,17.6751,-0.7771
TaMn2Sb,70.354,60.0904,-10.2637
ReHg2Br,13.6747,14.7023,1.0276
Ga2Ni2Ag,7.5347,9.3708,1.8361
ScAs2W,29.3113,26.0983,-3.2129
RbNiI,10.8066,11.2314,0.4247
RbGaSn2,10.0133,11.2631,1.2498
LiInPb2Br,34.8763,34.51,-0.3662
Cs2CuSiTe4,26.3657,25.0902,-1.2754
K3In2Sn5,14.8865,15.0608,0.1744
K(SbPb3)2,46.2683,44.8628,-1.4055
Li2InW,16.3806,17.9978,1.6172
NaLi2InMo,14.0972,12.9286,-1.1686
Sc12Sn5C2,23.0552,17.9544,-5.1008
LiIn2Sb,22.3151,20.1102,-2.2049
CsRb(CuBr3)2,9.7325,9.4236,-0.3088
Er4ScTc,60.9338,55.5114,-5.4224
LiTb2InO,26.2718,26.4268,0.1551
Ca2PrNdAg4,16.1777,13.5593,-2.6184
DySnPd4,15.5639,17.0597,1.4958
LiMnIn2,36.1755,31.1466,-5.0289
Li2InRu,10.4401,11.0254,0.5853
LiCaV2In,58.5216,45.3271,-13.1945
Na3(TlIn)2,30.6303,29.3295,-1.3008
ScAsW2,35.7516,33.85,-1.9016
UGaNi2,15.3539,19.3089,3.955
YbCuF4,5.1246,7.4366,2.312
TiPt,38.7302,31.4564,-7.2738
SiBIr3,29.4332,30.3517,0.9185
Na3(AsP)2,24.1272,20.7945,-3.3326
Sc(VIn)2,56.7401,45.1508,-11.5893
NaLiZrAg2,38.2775,31.2425,-7.0351
As2AuCl,19.7821,19.285,-0.497
RbSnC2Se,41.313,30.2536,-11.0594
ScAsW2,36.0609,33.85,-2.211
FeWAu2,35.4088,36.4242,1.0155
Ca2PdI,11.8745,13.6606,1.7861
PrZr2F11,10.3334,10.8196,0.4862
Pr7C3Br10,7.9386,4.4639,-3.4747
ZrTeOs2,56.3658,54.8688,-1.497
ScAsW2,36.0073,33.85,-2.1573
CuBiTe2,36.4769,36.8286,0.3518
ZrTeOs2,56.1853,54.8688,-1.3165
Y2Ho5In3,19.5053,20.5854,1.0801
NaS,22.1327,14.0115,-8.1212
ZrNiBr2,31.916,29.4521,-2.4639
CuBi3Te,42.9335,43.0263,0.0928
TaTiOs2,30.8313,36.5644,5.7331
CsLaAuN2,26.5358,24.4272,-2.1086
CsNiB3,7.9399,9.3115,1.3717
ScAsW2,35.9522,33.85,-2.1022
Ca2ReNi,34.1043,24.8236,-9.2806
Hf3Ru5,63.6483,50.2083,-13.44
Tm2UMn2,57.8689,54.0935,-3.7754
Pm9Nd4Al11,15.0057,15.9559,0.9502
FeIrW,29.6082,33.3856,3.7775
Th2Ge4Pd3Au,26.2368,28.0471,1.8103
YHgMo2,24.0992,20.7389,-3.3602
Tb9Pm4Al11,15.1567,16.7468,1.5901
Tb9Nd4Al11,15.6649,16.7245,1.0595
Y2CrHg,39.0217,31.0719,-7.9498
Mn(CuAu)2,41.4572,39.0224,-2.4348
ZnMoRh,23.9004,21.7123,-2.188
Pm4Sm9Al11,14.579,16.0975,1.5185
FeIr2W,32.9655,35.6381,2.6727
Tl3Pd2Cl7,17.4428,17.8699,0.4271
Tb9Sm4Al11,15.1929,16.7908,1.5979
LiTh2Ge3Pd4,22.3542,24.2234,1.8692
UIrS4,55.6538,45.8702,-9.7836
Hf4Sc9Al11,28.2717,21.0117,-7.26
MnBeZn2,34.5548,26.0712,-8.4836
MnBeZn2,34.6181,26.0712,-8.5468
RuRh2I,40.7707,32.4414,-8.3292
GaNi2AsAu,24.986,21.4504,-3.5355
Ac3Pr2In3,30.1284,31.5023,1.3739
ReHg2Br,13.9895,14.7023,0.7128
TlRh2I,43.4771,36.8309,-6.6462
SiIr2S,39.8969,31.9106,-7.9863
Cs3Sr2Cl7,14.1697,13.4657,-0.7039
Li3InSb2,18.9291,15.9337,-2.9955
Mn(AgPd)2,39.7804,34.0685,-5.7119
Ta4Ti9Al11,10.6622,11.3837,0.7215
Tb4Er9Al11,16.4872,18.1452,1.658
RbSbS4,41.568,30.7146,-10.8534
RbPmS4,36.1935,26.9645,-9.229
Ca3Pd2Pt,18.1166,16.9837,-1.1329
Sc2CuSe2,28.5189,22.3672,-6.1517
SrCaDy,15.4057,15.899,0.4933
LiInSb2,28.5668,24.6656,-3.9012
BeGa2Sb,12.7656,13.3119,0.5463
GaNiIr2Se,31.1069,30.5111,-0.5959
Ga2Ni2Os,8.3027,12.649,4.3462
CaPm3Ag4,25.309,23.3889,-1.9201
LuMgIr,14.4283,21.3509,6.9226
LaPr2Ag,18.2511,14.9201,-3.331
CsRbGaNi2,10.8358,10.8659,0.0301
Ga2NiAg2,14.1727,13.3385,-0.8342
BeGa3Ni,6.7951,8.0596,1.2646
Ga2NiBi,19.7288,21.3774,1.6486
Ho3(SiIr)4,28.0305,27.5732,-0.4573
GaNi3I,10.6749,11.7994,1.1245
CuBi3Sb,44.1945,43.0042,-1.1903
YHgSCl2,43.89,38.6404,-5.2496
AcLaS4,55.4052,43.0306,-12.3746
InGaNi2,9.9356,12.3138,2.3782
Y2GaSnHg,27.4039,23.0199,-4.384
FeOs2W,103.6418,83.5351,-20.1067
Mo2Ir2Rh,37.7124,33.9317,-3.7806
Mo2IrRu2,26.9889,18.8486,-8.1404
AcYHg3,19.6706,19.7797,0.1091
InGaNi3,10.4717,11.6441,1.1724
Hf2MnNi2,91.4538,71.6255,-19.8283
AcYHg,30.2317,29.8422,-0.3895
Ta2Ru,29.5771,35.1791,5.602
Ga2NiPb2,21.9653,23.561,1.5957
ErH5Pd,6.5063,7.8401,1.3338
AcY2Hg,41.3052,37.5146,-3.7906
UGa4Pb,25.89,27.5435,1.6534
Tc2MoOs2,60.298,54.261,-6.037
Tc2MoW2,45.1642,45.2294,0.0653
Y6CrPb2,30.7626,29.5107,-1.2519
RbSr2MnCl8,17.3107,15.3347,-1.976
NdUS4,51.8959,42.4689,-9.4269
Tc2MoIr2,51.1211,48.516,-2.6052
NbReS4,67.4227,52.534,-14.8888
Ga2NiAgOs,19.8637,19.9527,0.089
NaVTc2Ir,78.8555,65.0906,-13.7649
CePr2Hf,40.1867,31.8035,-8.3832
Rb3(TeN)2,21.5233,20.6983,-0.825
RbGa3Ni,8.3913,8.2707,-0.1206
CsHfIr2,58.0966,51.6779,-6.4187
Pr2TmN,8.6136,9.6456,1.032
VCoAu2,53.8524,48.6204,-5.2319
Y(HgOs)2,22.0787,24.2842,2.2055
As(PbSe)3,52.9092,48.623,-4.2863
La7Tl3Co2,43.8469,35.2472,-8.5997
Sr2AgAs,21.4812,17.5002,-3.9809
Ca3CdCu14,8.3288,8.7768,0.4479
Ti2BiTePb,32.7917,33.1634,0.3718
CsPrP,2.5983,6.8434,4.2451
TiCrSb2Te,39.1423,34.0768,-5.0655
SrTiTeI2,22.225,21.3067,-0.9184
SrTiTe2,25.9128,25.7149,-0.1979
TiTeP,9.9783,14.3463,4.368
LiTiSbTe2,27.3599,24.2597,-3.1002
Cu(SbAs)2,19.6996,17.4777,-2.2218
Sr3TiTe,18.5229,18.1688,-0.3541
AgSbAs2,24.3937,22.222,-2.1717
Y2ZrSb,36.3339,35.2325,-1.1013
TiTe2I,27.6655,28.5476,0.882
Be2CrTc,26.3301,22.796,-3.5342
ZnPb3Cl,34.1013,34.6623,0.561
ThPa2(GePd)2,35.8422,39.1286,3.2864
ScBiS2,34.7534,30.5332,-4.2203
TiTeOs3,36.6634,38.1283,1.4649
BeCr2Tc,28.1252,24.6262,-3.499
BeCr2Tc,28.1824,24.6262,-3.5562
Pr12NdEr7,8.7812,10.134,1.3528
CsNa2CuSn,38.2991,32.7491,-5.5499
Ti(Te2Br3)2,21.5093,21.1098,-0.3995
BeCr2Tc,28.0941,24.6262,-3.468
Y2Hg,0.0,17.3828,17.3828
LiErLu2,24.4263,26.8186,2.3923
Cs4PuO4,17.4859,19.6892,2.2032
Hf4TiTe2,95.4075,69.7694,-25.6382
NiPtS4,53.56,39.4007,-14.1593
Ga3IrOs,22.9656,24.6974,1.7319
RbHfSn2,42.6404,33.2528,-9.3876
TaPPt4,67.8382,50.8357,-17.0025
La2YTl,41.8225,36.1867,-5.6358
Cr2PbAu,24.2012,25.6827,1.4815
TiTe4Rh,36.6123,33.5964,-3.0159
TiNbTe,40.6512,37.2825,-3.3686
Hf3Th,124.4226,92.7848,-31.6379
ZnCdRe,61.7157,49.412,-12.3036
YHg2I,15.4195,14.2453,-1.1742
TlCuRu2,24.2567,25.4352,1.1785
CdInSnBi,28.6635,30.1124,1.4489
Tm3Al3Si2Ir,27.4785,26.9622,-0.5163
HfTlAg,75.7299,60.1032,-15.6266
Ba(SrPb)2,26.009,27.5181,1.5091
ThGePd,30.2038,33.9385,3.7347
Pu3(TeN)2,41.8895,43.5829,1.6935
Cs2YHg4,13.9042,12.8803,-1.024
Ti2BiTeI,26.8637,26.1871,-0.6766
InSb3Au,40.8538,36.7303,-4.1235
Re2PbAu,46.0357,48.7441,2.7084
BaSr2Pb,19.664,21.1131,1.4491
TiTe2PI,25.1336,22.9259,-2.2077
RePbAu2,47.5956,49.6851,2.0895
HfTl2O,56.8755,48.4419,-8.4336
RbSn2HgSe6,29.5016,23.8547,-5.647
RbIn(SnSe3)2,30.9179,25.4524,-5.4655
Ba2ScCu,19.1206,15.0844,-4.0362
RuBrN,35.8814,31.9373,-3.9441
RePb2Au,48.6832,50.8933,2.2101
Ca3BeSb,19.3927,14.3224,-5.0703
InSe,18.0115,15.7927,-2.2188
LaPb2,51.9164,49.0829,-2.8335
Al2AsPb2,30.6344,28.5489,-2.0856
FeReW,40.9695,37.4524,-3.5171
FeReW,40.9142,37.4524,-3.4618
FeReW,41.404,37.4524,-3.9516
HfNiSb,63.7657,46.4139,-17.3518
P2RuSeN,27.6154,24.589,-3.0264
BaMo2P,18.365,16.528,-1.8369
BaSc4Cu,15.5356,13.5121,-2.0235
Hf2NiSb,81.5951,59.7555,-21.8396
Cu3RuN,29.3911,26.2949,-3.0963
Pr3NdTm5,14.5973,16.876,2.2787
IrRuSeN2,42.5953,37.9756,-4.6197
RuN,15.3363,17.1907,1.8545
ThGe2PdPt2,46.0831,39.1446,-6.9385
Y3(HgPb)2,36.2738,32.8079,-3.4659
Y(SiRu)2,23.7453,19.5734,-4.1719
OsPdRh2,39.4403,35.4733,-3.967
Ba2Sr2Sc,4.5366,5.7297,1.1931
Nd(GeIr)4,19.0167,22.7861,3.7694
Sr4Pd2N,17.7752,17.7507,-0.0244
NiSn2Rh,25.0304,21.3044,-3.7259
Sr2Ta(TlTe2)3,41.0009,38.5818,-2.4191
PPd2Rh,22.1105,21.129,-0.9816
SiRu2,24.3128,19.1984,-5.1143
ZrSc2SiC,49.7726,40.0245,-9.7481
Be2Sn2Br,16.3186,12.2484,-4.0703
FeRe2W,40.7061,39.8733,-0.8328
Er11Tl9Cd4,35.4435,36.7105,1.267
Sr2PrNpAs4,20.5031,18.9696,-1.5335
LiSi2I,19.4127,16.3188,-3.0939
Dy11Cd4Hg9,15.246,16.3799,1.1339