Formula,E_hull_DFT (eV/atom),E_hull_ML (eV/atom),Delta (ML - DFT)
LiWCl4,13.067,12.607,-0.46
ZrFeOs2,54.8789,49.3606,-5.5183
YTlZn2,21.88,21.4838,-0.3962
NdH5Pt,16.2579,12.8637,-3.3941
ScTi5Sn3,14.9804,10.9042,-4.0762
CePuTh4,60.5085,64.3061,3.7976
SrBeSn,17.3468,13.9537,-3.3931
Sr2NbSe2,53.2937,43.9332,-9.3605
Zr2FeOs,60.2926,51.2207,-9.072
Hf2HgRh,77.0823,55.4948,-21.5875
ZrOs,0.0,5.937,5.937
ScMoIr4,39.7567,41.0664,1.3098
La(H2Pt)4,31.5835,21.3597,-10.2237
FeCo2Os,28.4769,24.4253,-4.0516
BaNaMg2Sc,8.9591,7.2822,-1.6768
ZnIr2W,37.343,38.0482,0.7052
Zn4Cd3Au2,20.2358,21.0071,0.7713
ZrPb4Se,59.8148,55.4898,-4.325
PSe2Cl,24.0792,19.6213,-4.4579
ScRe2,46.9118,47.0027,0.091
TcPPb4,52.2056,50.4386,-1.767
RbNbAg2,49.4974,40.6911,-8.8063
CeHfAu4,59.0674,54.1366,-4.9308
Cs3(ZnAg2)2,23.7444,21.3366,-2.4078
Ca2ScRe,36.1775,30.4331,-5.7444
Li2AlIr,14.5874,15.0873,0.4999
K2AsRu,15.3491,13.9749,-1.3742
CeNdTm4,28.7445,31.505,2.7605
HoSc5Ga3,2.8084,5.2901,2.4817
Hf4Zr2In3,92.2521,69.9428,-22.3094
Y2ZnCrTe,35.3621,28.6848,-6.6773
NiBPt,25.5418,19.8788,-5.663
Sc5PaIn3,12.4693,13.542,1.0727
CsMnPPt2,62.6364,46.1305,-16.5059
TaPt,63.6184,51.7472,-11.8712
Sr(HgSb)3,18.9157,14.907,-4.0087
Mn2AgC,66.0784,52.3767,-13.7017
B2MoIr2,14.6292,18.0635,3.4343
ZnB3Mo,10.6549,10.2578,-0.3971
Nd2Br3,11.2659,14.4779,3.2119
U2Co2H6Ir,17.5365,19.3097,1.7732
K2YRu,18.8649,14.6058,-4.2591
Sr3IrOs,29.6915,27.4922,-2.1993
ZnCo3N,49.3655,39.9076,-9.4579
Rb3HfSc3Se8,35.1197,27.3753,-7.7445
BaSi2Te,17.8902,14.3076,-3.5826
CdInAg3,24.1129,21.5226,-2.5903
Y2ZrZn,35.4174,31.4787,-3.9387
CdTe4P,32.6129,30.4383,-2.1747
Y2ThZn,27.1836,28.3569,1.1732
MnTlCo,53.7414,48.1795,-5.5618
Tl5Re,49.6124,51.5533,1.9409
Ca4MgNi,7.5796,6.9881,-0.5914
Mg3SnW,14.7538,15.8619,1.1082
Hf2ReCl,75.528,57.9542,-17.5739
Pm3HfAg3Se8,45.3437,36.7738,-8.5699
Rb2PmPr,6.8088,7.3223,0.5136
CrCd2Ge,11.0742,13.0309,1.9567
YAsAu4,35.1578,37.2365,2.0787
Ru5W,39.9097,33.0521,-6.8575
TaPPt,45.3895,36.2601,-9.1293
Pm3CoSn3Hg2,15.4325,17.2395,1.807
Rb3NbAg,36.9081,29.1304,-7.7777
LaTmAg3,31.1155,26.109,-5.0065
Ce6HOs5,29.7021,31.722,2.0199
YZnRe2,36.9376,33.9393,-2.9983
PmSmAg3,24.6609,24.0273,-0.6336
NdTmAg3,25.7754,24.9013,-0.8741
CrTeMo4,20.7668,20.6515,-0.1153
Ta2MnTl,56.6885,54.3648,-2.3237
PmTmAg3,25.8058,25.0701,-0.7357
Ta2TcI,48.1343,47.6894,-0.4449
Nd2InNi2,10.6787,14.7678,4.0891
Ta2MnTl,56.6642,54.3648,-2.2994
SbAuSe3,43.6928,36.8913,-6.8015
CaLa2SmSe4,49.3087,38.4235,-10.8852
ThCd3Ag,28.2145,28.7891,0.5745
Cd3AgPb,26.4927,26.5856,0.0928
TbGa2BO6,8.9821,9.524,0.5419
CrIrOs4,38.1014,40.7228,2.6214
U4Ga16Pd3,25.2303,23.9638,-1.2665
YZnCuRu,23.9555,22.4682,-1.4873
LaPm(PuTe2)2,47.3315,44.841,-2.4905
CdAgPt3,59.8532,42.2534,-17.5998
Pr(HRh)3,14.3523,8.942,-5.4103
Ce3(PrTe2)4,24.7346,24.4109,-0.3237
SmYZnPt,35.2667,28.8594,-6.4072
LaCo5Si3,6.685,5.7868,-0.8982
CaAlMo4,21.8066,18.5602,-3.2464
Ho3AgAu,27.807,29.3824,1.5754
AgAuI3,27.2775,27.2077,-0.0698
AlSb2,27.325,21.9468,-5.3782
Li2LaY,13.5382,12.2063,-1.3319
CrPRh2,51.061,39.783,-11.278
PRu4Au,20.0801,22.5956,2.5155
Ca4YSi,18.7229,17.1412,-1.5817
Sm7(TeS)4,30.7305,27.5559,-3.1746
La4P3H,25.9379,18.5806,-7.3574
CsSr3C,27.3236,23.5537,-3.7699
Mn2H3Pt,42.2139,32.6539,-9.56
CsSrC3,47.0507,34.6287,-12.4219
Er4Co3Ru,18.7497,21.2121,2.4624
In3AgSn,19.4406,19.4553,0.0147
NaBeH,5.6448,4.7707,-0.8741
Tm3HfAg3Se8,46.5144,37.6208,-8.8937
AlSb4Pt,45.9958,34.1716,-11.8242
PmDyCoHg,14.3162,17.253,2.9368
LiW3I,30.4319,32.6062,2.1743
Zr2CdI,59.8471,49.9409,-9.9062
Sc2InFe,24.0995,23.4154,-0.6841
TlSiRh4,44.0035,33.5608,-10.4427
RhI2BrN,24.0868,20.0929,-3.9939
NaMnCr,40.394,36.1984,-4.1955
Ba6InH2,3.1277,4.0894,0.9617
BaCa2Sc,7.4885,5.835,-1.6535
La2Sm3PuTe6,40.5186,36.8362,-3.6824
BeRhC2,43.9354,33.3676,-10.5678
Be2RhC,28.2286,23.3233,-4.9053
YMn2Br,56.3868,47.0382,-9.3486
Li2Co3H8,1.9982,2.117,0.1188
Fe2BMo,14.1491,12.3961,-1.753
SrLaBe3,18.1802,12.2999,-5.8803
ErH6Pt,14.6489,12.3998,-2.2491
MnZnTe,50.1393,43.1516,-6.9877
LiCaScI6,13.2859,12.9863,-0.2996
Y2MnBr,34.667,31.13,-3.537
Pr2H12Ru3Pb,11.2042,11.0866,-0.1176
CsLa(PPt2)2,54.4221,37.8504,-16.5717
In3Ge2,12.4461,14.405,1.9589
SrSe3Br,35.7418,29.2014,-6.5404
Cd3RhI,27.2745,23.9987,-3.2759
YbZn2,11.3536,14.3964,3.0427
NaBPCl2,10.0602,8.6977,-1.3624
TbNd4Tm2Mg,23.6808,25.7533,2.0725
PrThCu10,10.7822,12.0323,1.2501
NiOsRu,0.0,6.4675,6.4675
Sm2Zr5Bi3H2,58.2794,50.8877,-7.3917
BeSbW2,33.821,33.7542,-0.0669
BeSbW2,33.9074,33.7542,-0.1532
La4CoTc,52.0537,37.4351,-14.6187
Y(GaS2)3,22.6849,15.0106,-7.6743
BeSbW2,34.0293,33.7542,-0.2751
Co2SiRh,18.8627,15.5282,-3.3345
NiPI2O,31.1126,24.9597,-6.1528
TaNiOs,18.564,26.087,7.523
CeDyTlRh,37.672,36.5968,-1.0752
NaTlInPb,36.8822,36.4921,-0.3901
InBrCl4,4.6901,5.4568,0.7667
Ti2Ni5Rh,14.9368,13.0499,-1.8868
PrHo2Ni,21.8334,21.2772,-0.5562
Mo2WCSe,38.8532,33.4638,-5.3894
Mn(H2Pd)3,10.893,9.7182,-1.1748
BeBiSb2Te,38.6632,33.5578,-5.1054
P2Pt2Pb,41.7736,32.4368,-9.3368
Pr2Ho2Rh15,40.8606,29.3652,-11.4954
YMnSe2Br,43.8291,36.1964,-7.6328
BaMgCr,12.0576,9.3892,-2.6684
PRuPb2,31.8398,33.52,1.6802
B12W,3.7829,5.3794,1.5965
ThSi3Ir5,27.4849,29.2223,1.7374
SmPaCu10,13.2431,14.6673,1.4242
CuRuW2,26.6031,29.8239,3.2208
PaMn5Si3,59.0172,48.0234,-10.9938
V2GaP,68.8503,54.7419,-14.1084
YMnIr2Br,43.4908,40.6795,-2.8113
KLaV3,91.8814,69.4086,-22.4728
PW2Cl,79.1623,67.1826,-11.9797
Nb2CdRu,72.87,63.9474,-8.9226
AlTlCl4,11.8847,12.7557,0.8711
Cs2Na2IrO4,10.0533,11.3849,1.3316
PtPb2,60.0551,55.1077,-4.9475
Ti(TcH4)2,17.4583,14.9743,-2.4839
Na6V2P(CO4)4,20.3894,17.6766,-2.7128
CaTc4Sb,71.4481,60.221,-11.2271
CrPtAu,48.6667,39.336,-9.3307
Ta(MoPt)2,40.0706,33.7011,-6.3695
CrPtAu2,48.2968,42.3392,-5.9575
ErAsBrO4,0.2362,2.3041,2.0679
TmHgPdPb,24.7542,27.2348,2.4806
Li2La2YSi2,32.3814,25.4358,-6.9456
Rb3(FeH3)2,0.6663,1.1684,0.5021
RePtAu2,51.5558,48.4911,-3.0646
In4OsCl,21.6774,22.8881,1.2107
TeBrO2,2.1899,3.8437,1.6538
K(Be2C)2,20.9919,17.4039,-3.588
Cu3SnGe3,19.3049,17.9498,-1.3551
RbFe2Cu,17.5479,13.4904,-4.0576
SbBrO2,23.3476,22.1889,-1.1587
LiTbYIn,16.3661,17.4427,1.0767
Y2BeSi4Ni3,43.4201,35.6492,-7.7709
CsSbPHPt,29.5045,21.8515,-7.6531
Co2Br,11.1352,12.5163,1.3812
Ga3PbI,20.4818,21.3699,0.8881
Bi2As2Br,24.5018,26.2412,1.7394
BaZr4Ni,69.4665,53.6513,-15.8152
SrCaNb3,92.0642,74.2435,-17.8207
TaZn2I,19.8395,20.8476,1.0081
Bi3AsBr,37.5395,37.9591,0.4196
TlRe3,43.2582,48.9976,5.7394
CaYCuNi,47.0447,39.933,-7.1117
BaNaNb2Ge,65.2823,53.4763,-11.8059
ZrCu3,24.4982,21.7265,-2.7717
TlFeOs2,43.691,41.8045,-1.8865
Dy2RhPb,38.5353,37.8303,-0.705
Tl4CoRe,43.3353,44.1054,0.7701
AlReCl4,11.2766,12.2231,0.9465
H8Ir5Pt,22.2525,21.2996,-0.953
SiRhCl4,14.6581,11.3185,-3.3396
TbPrPd2,13.6381,16.8644,3.2263
UH11Pd5,9.31,10.12,0.81
UH11Pd5,9.3163,10.12,0.8037
UH11Pd5,9.2864,10.12,0.8336
YTiBr2,22.5355,18.2187,-4.3168
CrNiTe2,36.1212,33.9034,-2.2177
Fe2CoCu,26.7808,21.2156,-5.5652
Sb3OsC,48.7656,38.5562,-10.2094
TlFe4Os,22.0374,21.3038,-0.7336
CaTe4Ru,32.2014,30.6256,-1.5758
NiOsRu2,24.0512,26.2342,2.183
MnTeIr4,53.0373,51.8898,-1.1476
V3FeNi2(PO4)6,25.727,21.2142,-4.5128
Ta3NiAs,33.7455,33.0615,-0.684
Sr4CaMg,11.6819,11.5212,-0.1607
RbP,5.8295,0.0807,-5.7488
Na3Sc2(PO4)3,26.0805,22.2937,-3.7868
Ce2Np(TlTe2)3,42.9027,42.8914,-0.0113
SrRu3Au,24.4024,25.5939,1.1914
Tc3AsRu,64.6436,54.4831,-10.1605
SbPt2Pb,69.0316,52.391,-16.6406
Rb(CuP)2,13.5257,9.9327,-3.5929
NaSbPb3,45.8179,43.0395,-2.7784
Ca2Ti2As2H,13.1156,11.2696,-1.8461
PuNiP2,16.5607,19.1895,2.6288
RbCuC2,32.7043,22.8237,-9.8806
NaSbPb2,43.7767,41.0307,-2.746
CaAl3Ir,2.3274,3.1248,0.7974
Sb2Pt2Pb,59.1913,44.6465,-14.5448
Sb(TeP)2,23.935,21.22,-2.715
HfPI3,45.6622,35.8939,-9.7683
CaCoRh2,30.7345,22.5875,-8.147
ZrCrH6,13.414,11.0293,-2.3847
V2ZnGa,68.2673,54.6686,-13.5987
BaCdCl4,4.3177,5.7304,1.4127
CrNiTe2,35.7221,33.9034,-1.8187
BaSn4Pb,22.3379,23.4589,1.121
Pm3H2Br3,8.4767,12.2444,3.7677
IrSeBr,29.2585,27.9858,-1.2727
Ca3IrW,26.988,24.552,-2.436
BeFeSbC2,44.7504,32.8616,-11.8888
Na2V16Mo2O45,34.3171,26.9258,-7.3912
Zn2FeOs,23.6991,21.2426,-2.4565
Te2Pt,58.4636,46.8461,-11.6174
TePt3,72.4033,51.4317,-20.9717
Ba4SrSc,3.5247,4.4738,0.9491
CsSbPHPt,33.7971,21.8515,-11.9456
SbTeP2,24.1234,21.2763,-2.8471
Y2IrI,17.1755,21.7489,4.5734
RbPt2N,48.1501,33.2547,-14.8954
CoTcSb4,48.4505,38.4062,-10.0442
Rb2CuC,19.2141,14.1487,-5.0654
Rb3CuC,15.9695,11.3406,-4.6288
NaLaSc,23.3372,17.3096,-6.0276
NaSc3Nb,37.6004,32.2983,-5.3021
Er4Co3Ni,26.761,25.4077,-1.3533
Na2LaSc2,22.6412,18.2323,-4.4089
KRb2Ge,2.1006,1.0871,-1.0134
DyMg(ZnH4)2,4.8308,4.9644,0.1337
CeNiN2,15.8486,15.5822,-0.2664
Mg4ZrSi,21.2345,18.0277,-3.2068
YTiNiRh,56.6413,47.7346,-8.9067
PuAl3Ga,17.6356,19.6979,2.0623
Gd2InSb,30.1194,29.7299,-0.3895
LiSc2Tc,63.9684,55.7273,-8.2411
NdScPa,26.0174,31.693,5.6757
Li2ScTc,62.4168,53.0624,-9.3544
Tl2H6Ru2Au,16.6873,18.035,1.3477
ScWAu2,29.2056,33.3931,4.1875
Pm2NdSmHo5,22.6123,25.8475,3.2351
LiScTc2,85.5635,73.1592,-12.4043
BrCl5,5.5565,5.638,0.0815
NdAl3Hg,3.4229,6.1408,2.7179
CaY2AgSe4,41.0507,33.6442,-7.4065
SbTe2P,33.4674,30.6635,-2.8039
Pm4HgPd,5.3777,10.6676,5.2899
Li3In2,7.4479,6.8825,-0.5654
SrAl3Ge,14.3049,12.9259,-1.3791
SmY2Er7,26.5402,28.1573,1.6171
NbZnI2,49.3036,42.8617,-6.4419
Sr4CaY3Te8,28.1353,25.339,-2.7963
EuAlAg,20.6787,20.1564,-0.5223
Tb5HN4,12.2273,16.0156,3.7884
Zn2PtPb,39.3765,32.7485,-6.628
ZnPtPb2,50.4327,43.9968,-6.4359
PrNd2PuTe4,34.2741,34.2145,-0.0596
RbLiYS2,21.6531,16.9037,-4.7494
CdCoCl4,6.3004,8.0394,1.739
K4Ag3Br10,14.2337,12.9701,-1.2635
YAlBr6,16.9953,16.3531,-0.6422
MnAl3Fe,6.2348,6.2367,0.0019
Cs4Tl3I10,27.2763,27.6661,0.3897
SbICl2,19.003,17.2676,-1.7354
Ni2GeSe3,30.4925,24.285,-6.2075
FeTc3Ni,76.0371,61.4664,-14.5707
Fe2CoCu,32.2685,21.2156,-11.0528
PtSe,36.6287,23.224,-13.4046
CuSiSe4,37.2858,29.2496,-8.0362
Ce2EuBi,32.8332,34.7717,1.9385
CsBa2Si,9.8826,9.2466,-0.636
LaNdI6,25.3877,24.1383,-1.2494
PPtSe2,47.41,35.8359,-11.5741
CaPrLuSc,14.0811,13.2789,-0.8022
RbPtBr2,29.949,23.6577,-6.2913
La2YSnC,47.8014,34.0829,-13.7184
RbPt2C,55.2417,36.4059,-18.8358
LaSc2As,24.4857,19.22,-5.2657
YZrTiGe2,42.2264,33.5259,-8.7006
CeEuBi2,40.4497,42.9212,2.4715
Tm2MgBe3Pt4,43.8826,31.3328,-12.5498
AlTlSn2,23.9644,25.4221,1.4578
CaNbTe2,57.7743,51.0502,-6.7241
YRuS2Cl,57.4815,50.5807,-6.9009
Ba(AlSn)3,11.7571,11.6667,-0.0904
LiInCuGe,10.2428,10.9434,0.7006
LiInAs3,11.7193,11.5472,-0.1721
IrSeBr,19.5602,27.9858,8.4256
SrCo2As,17.7125,15.0756,-2.6369
KNa2Sr,18.7198,16.1705,-2.5493
IrSe2Br,37.6505,35.507,-2.1435
PuSnPN,30.6205,33.2795,2.659
Li2In2As,9.0768,8.6328,-0.444
Mn3Nb2Ru,89.7476,74.2014,-15.5462
YSeI3,26.3675,24.8085,-1.5589
RbLiIn2Ge,13.5484,12.5855,-0.9628
Ca4TaCo,25.897,20.9315,-4.9655
NaOsPb2,39.4838,40.776,1.2922
Ru3SeCl,21.4861,20.5966,-0.8895
K2Na2Nd4Nb2O13,10.0596,9.2618,-0.7977
NaPaInO5,9.0279,13.0442,4.0163
Pr3ThPb5,29.587,31.8957,2.3087
Li2InGeB,8.9731,8.2212,-0.7519
KNaSr,16.7617,15.1108,-1.6509
Cs3PAu,24.6872,25.6114,0.9242
Eu2GaSi2,13.1965,12.719,-0.4776
Hf5Ga6,69.4669,51.508,-17.9589
Pr3SmPb5,25.2485,27.9577,2.7092
YSe3I,36.0614,30.1802,-5.8812
Na5WNO4,10.2354,9.7355,-0.4999
Y4RuW,30.4554,24.7508,-5.7046
LaY3(MnSi)4,60.4073,48.3184,-12.0889
Li2InAs,8.565,8.6968,0.1318
RePPb2,57.3598,52.3239,-5.0359
BaMg2CoSn,10.9487,8.2537,-2.695
NaSb2Pt,50.6635,37.6154,-13.0481
NaP3Br,10.9696,9.9891,-0.9805
ScAsRhSe2,44.2904,37.0934,-7.1971
AgRhI2,28.637,24.4048,-4.2322
CsDyP2Pt5,55.4288,39.3004,-16.1284
TbPr3Pb5,25.4267,28.1616,2.7349
BaMgCl4,3.8349,4.1848,0.3499
Na3Zn5O12,7.8367,3.9347,-3.902
Pm4CdHg,19.422,22.2555,2.8335
HfAl3Ru,19.9962,16.9689,-3.0274
SrThRu4,24.0288,27.6089,3.5801
Na3ErU2N6,19.3649,20.6175,1.2526
ScRe2,47.9034,47.0027,-0.9007
CaPrSb2,23.3711,18.3663,-5.0048
RbLi2InNi,9.7721,8.2877,-1.4844
ScCo4H7,2.668,3.6107,0.9426
PrZrCu10,13.5172,12.8077,-0.7095
PuZrCu10,19.7861,19.1975,-0.5887
OsSe,45.8557,43.8741,-1.9816
TbZrCu10,15.9182,15.3113,-0.6069
NaMoRh2,28.9073,24.6567,-4.2506
Co2TcRh2,33.2143,28.6264,-4.5879
CePm4Sm3N8,11.368,14.3789,3.0109
NaVPO5,1.5937,0.9858,-0.6079
Y3Tl3GeO8,28.8826,26.9657,-1.9169
LiSiSn,15.2779,15.0937,-0.1842
Ca(H3Pd)2,8.4008,7.2381,-1.1626
RbLi2InPb,17.9353,16.7323,-1.203
PaAl3Si,20.7075,21.7409,1.0334
Pb3W,49.7944,52.081,2.2866
Rb2AcTbO4,9.7969,12.328,2.5311
ZrNbCr,73.8272,60.6922,-13.1351
NaTiCCl2,24.9829,18.9174,-6.0655
PmPrNdTh2,30.2549,35.2868,5.0319
Al3SiTc,27.5592,23.1032,-4.4561
Na3MoI,23.1073,20.0736,-3.0336
Ca(H3Pd)2,8.3949,7.2381,-1.1568
NaMoRh3,39.1808,29.3395,-9.8414
NaNi3Te,18.3697,17.6674,-0.7022
V(PPb)2,42.8361,38.7473,-4.0888
ReOs,17.781,32.0015,14.2204
CsTl2Te,38.9938,39.5857,0.5919
CaMn2Ir,69.6636,55.9008,-13.7627
K2ZrAs,33.4808,27.648,-5.8329
CaMn2Ir,69.2834,55.9008,-13.3826
ZnCrAg,17.8127,14.5239,-3.2888
SrAl3Ir,1.725,2.9884,1.2634
Li2In2As,8.8308,8.6328,-0.198
Pr5NdTm3,6.1762,8.7069,2.5308
Pm3Pr5Sm,4.1258,7.2821,3.1563
PrTmCu10,7.8012,9.0877,1.2865
Ta5Hg3,23.1892,26.0104,2.8212
Ir3SeBr,40.091,39.1938,-0.8972
NdReBrO4,12.2451,13.1075,0.8624
CePrGa,12.0609,12.8965,0.8356
Ba2SrTa2,20.0382,19.4274,-0.6108
NaCd2(GeO3)3,0.0,1.0141,1.0141
Tb3Pr5Dy,5.0646,8.0812,3.0166
Pr5SmTm3,6.2179,8.9414,2.7235
NaGe3(BO3)4,1.8925,2.5196,0.6271
TbEr3N4,12.9868,15.9678,2.9809
Na2Sn(CO2)4,30.1549,23.5233,-6.6317
Na3Pm(SeO3)4,14.1382,13.0215,-1.1167
Ac4TbY3Se8,42.6909,38.8138,-3.8771
Co(ReIr)2,25.241,32.5422,7.3013
CaCeSmN3,0.5747,5.2765,4.7018
SrInCu10,8.3872,9.5212,1.1339
SrYCo2Rh,33.5454,26.9156,-6.6299
CsTl(PPt2)2,54.5984,40.2186,-14.3798
CeCdNi,20.2451,20.5581,0.3131
CeYCu10,13.0123,12.9286,-0.0836
CaTaOs2,31.4962,36.0677,4.5716
Rb2TaOsI6,21.8601,22.0482,0.1881
HoTmFe10,4.855,6.9988,2.1438
TaTl3Os,48.1157,49.05,0.9343
Th4CdRe,66.018,62.6419,-3.3762
Cu2BMo,30.1216,21.066,-9.0556
BaInAu10,40.8432,41.954,1.1108
CsP2Pt4Pb,54.7959,40.524,-14.2719
PrThFe10,8.7171,9.4166,0.6995
Y4TlGeTe2,25.1332,24.9832,-0.1499
TbSmFe10,4.2901,6.4116,2.1215
Cs2NaTeCl6,12.7975,12.7147,-0.0828
Ge3BMo,17.1061,13.9003,-3.2058
K(H4Pt3)2,36.692,24.5528,-12.1392
La(NiH3)4,4.5296,4.1475,-0.3821
Pr2NdN3,8.8625,8.1915,-0.671
Pm5PrIr3,20.5961,26.6684,6.0723
ZrTaFe10,11.2588,11.4634,0.2046
PrSm3Er5,20.1331,23.0159,2.8828
Pm5PrHo3,18.6312,21.8732,3.242
PrSm3Dy5,18.6829,21.7301,3.0472
NdFeCo10,13.1655,12.4193,-0.7461
PmFeCo10,13.1679,12.4095,-0.7584
SmTcBrO4,10.3293,10.3047,-0.0246
AlIrPb4,43.7019,44.9385,1.2365
Si4PPt,28.5107,19.3737,-9.137
PmSm3N4,11.4098,14.4299,3.0201
NaIn2I,21.8289,21.3771,-0.4518
Ac4Ge3Au,40.9362,43.1656,2.2295
CdSnPb4,41.7764,42.7206,0.9442
CoBMo2,1.6886,6.7871,5.0984
UInPd,28.7533,33.7014,4.9481
KLaCd10,21.159,20.001,-1.1581
KBaPd10,15.6741,16.9802,1.3061
ZrAsRuSe2,56.2507,47.9167,-8.334
BaSr2Ta,24.7269,19.9297,-4.7972
K2ScCdRh,19.7662,16.3719,-3.3943
LaW2Se,44.6245,40.1902,-4.4343
MgMnMoH,26.1881,22.5578,-3.6303
Ba2SrTa,21.4102,17.0272,-4.3831
PrHo2Ge,14.9455,18.238,3.2925
GaRe3Pd,33.8925,34.4895,0.5971
Rh7Pb,49.5625,36.6699,-12.8925
BaB2Mo,0.1267,4.0703,3.9436
Tb5S4NO2,20.4718,22.4392,1.9674
BaNaLi10,3.8022,3.3842,-0.418
LaThPt10,83.6203,57.3655,-26.2548
BaLi10Ac,7.1296,7.2473,0.1177
K2NdAgI6,20.6784,20.1368,-0.5416
YCo2Pb,41.4258,36.1293,-5.2965
AlZn4Cu,7.5541,8.1466,0.5924
LiPuCu10,11.6672,13.0174,1.3502
BaCd4Ir,20.1147,21.3423,1.2275
LuTaOsRh,39.7994,40.6772,0.8777
LiNdNi10,7.1884,9.1223,1.934
LiHoNi10,11.8483,10.8593,-0.989
TiCoRe2,30.5016,33.9354,3.4338
RbNa10Ca,21.1553,16.976,-4.1792
ZrAl3Ru,11.3063,12.4674,1.1612
Na3SrNp2N6,18.6244,19.5049,0.8804
Cs2Mg(HI)2,14.7754,14.6669,-0.1086
Pm3AlAg,17.1335,19.6091,2.4756
AcFeH6,7.933,9.8214,1.8885
Ba2MgSnSe,15.702,12.8243,-2.8777
Be2HgTe,10.8437,11.4314,0.5876
Ta3S4,47.2781,39.7693,-7.5088
Na3HfTl,54.7084,43.1159,-11.5925
Ta4FeOs,38.2138,38.6871,0.4733
LiUNi10,10.8629,12.9226,2.0597
TaS,37.712,35.3726,-2.3393
Y(CoSb)2,33.3728,26.5585,-6.8142
NiAsBr2,19.8385,17.3754,-2.4631
Y2CoPbN,60.1404,54.7946,-5.3458
YCoSb2,46.6057,37.4937,-9.112
Y2CoNiSb,69.1354,57.1693,-11.9661
KNa3(SeO3)4,13.7602,11.4163,-2.3439
PuAlAu3,25.0123,30.3587,5.3464
CaCuPN,15.4329,11.158,-4.2749
Ca3AlHg,1.0716,2.8579,1.7862
SiSO2,16.8742,16.8476,-0.0266
Ca3AlTl,10.9212,12.9668,2.0456
YU3Tl4O12,23.0545,24.0296,0.9751
CaAlGa3,9.6806,7.8155,-1.8651
LaH2ClO2,12.0378,10.8374,-1.2004
Y2AsAu2,20.0511,23.1167,3.0656
Ac3AlCd,39.3765,42.7195,3.343
Be2HgW,16.3143,15.6618,-0.6526
Be2Pt2Pb,41.2352,32.0261,-9.2091
LiScNi10,5.7622,7.4573,1.6951
SrTe2W,42.8753,35.5632,-7.3121
Cs9Rb6Ag,16.3304,15.7745,-0.5559
YCoSb2,46.7155,37.4937,-9.2218
Nb(CuSb2)2,48.2264,38.9169,-9.3094
TaOsPt2,63.8907,51.9206,-11.9701
LiAcZn10,11.6231,12.3031,0.68
RbNa10Tl,24.9668,20.7681,-4.1987
ScGaC2,27.9021,22.2591,-5.6429
K2NaSr,14.5817,13.4429,-1.1389
Cd4InBi,25.2478,25.9613,0.7136
AgH6Ir5,21.1753,21.4082,0.2329
Nd2Sm2H,19.714,21.4703,1.7563
SrCa2SmHg4,6.2527,6.6491,0.3965
Nb2CuSb2,69.4783,56.9111,-12.5673
TlTeP2,25.1952,25.2479,0.0527
YTlCo4,27.9264,26.6687,-1.2577
Sr3NbCl,44.0401,38.4488,-5.5913
Zn4IrW2,24.9161,24.7679,-0.1482
MnAlCr3,17.937,16.5282,-1.4088
GePIrN,29.9991,28.6189,-1.3802
TlTe,46.3074,46.8095,0.5022
Sc(FeW)2,26.6436,27.578,0.9344
TbPrNi2,15.7187,14.7811,-0.9376
Sm(H3Rh)2,13.4515,10.5153,-2.9361
AlCuB2Mo,18.7085,13.9364,-4.7721
Nb3CuSb,97.0099,78.7519,-18.258
GePIrN,30.1345,28.6189,-1.5156
Cd4BiPb,30.7438,31.5893,0.8455
Nd2ErAu4,37.9396,39.3567,1.4172
KFe2Ru,20.9407,16.1173,-4.8233
VAsRu,30.8305,25.3195,-5.511
SrSc2W,25.1342,19.8432,-5.291
CaZnTc4,65.3041,55.6233,-9.6808
BiBMo2,15.3154,19.7709,4.4555
TlCr4Fe,22.3482,19.7486,-2.5996
NaCoRu,10.7642,12.7938,2.0295
SrV2Cr,72.9529,56.8493,-16.1036
BaBe2HgBr6,3.1241,3.6447,0.5206
MgPaCu10,13.0712,13.2341,0.163
TiH5Os,6.8162,8.4219,1.6057
ZnIr3W,40.1691,39.7216,-0.4476
LaY2TlCo,42.6054,35.6232,-6.9822
LuPuNi2,29.2855,32.7163,3.4307
AcAlIn3,25.1513,26.7273,1.576
CsTiSn3,25.2774,21.0987,-4.1787
Y2TlCoPb,42.6418,39.5927,-3.0491
Ca4Pu3UN8,18.2061,20.8954,2.6892
Sn2BMo,31.3848,26.3468,-5.038
BMoAs3,10.21,11.1498,0.9398
LiHfInSi2,43.5373,32.4371,-11.1002
Nd2AlH6,5.7957,6.5101,0.7144
BaLa2YMn,63.2949,47.7711,-15.5237
Nd3AlIn,14.8316,17.967,3.1354
Tm3AlIn,18.3218,21.6612,3.3394
Na2SrAg,23.5804,20.0867,-3.4937
Ba(CuSn)2,43.6283,37.7096,-5.9187
AlInTe3,18.8961,19.9172,1.0211
La3AlTl,37.0607,28.1828,-8.8779
ZnIrW2,36.0461,36.7648,0.7187
Be2HgW,15.843,15.6618,-0.1812
NaAcAu10,46.503,47.0983,0.5952
AlCoBr4,18.5193,14.8815,-3.6378
CdSbPb2,42.3693,40.9247,-1.4446
YInW2,38.0854,31.8757,-6.2097
Ce4CdSb,27.0334,27.2403,0.2069
NiAsPb,21.1533,20.8388,-0.3145
Tb2CrH8,5.3514,6.0644,0.713
Nd2Y(AlZn)2,20.5694,19.865,-0.7044
Mn(RhN)2,33.8074,25.599,-8.2085
NaPdPt4,66.6724,46.7521,-19.9203
PaInOs2,42.5602,46.6159,4.0557
BeV2Ni,66.0168,53.4102,-12.6066
NaTaAgC2,45.6136,35.8366,-9.777
Na2NbCdO4,24.9367,21.751,-3.1857
Ca2Al5Zn2,5.6458,5.4826,-0.1632
ZnIr2W,37.3089,38.0482,0.7393
Ce3(Zn2Cd)2,15.7131,16.8431,1.13
RbBaMg2,2.811,2.0611,-0.7499
Ni(SnC)2,35.4785,25.7203,-9.7582
Nb2CdSbPb,81.5083,68.6746,-12.8336
Tc3Rh,81.7651,69.4188,-12.3463
TcRh2,55.0741,48.4768,-6.5974
Ni2Cl,2.4906,5.694,3.2033
Pm3Nd3CoHg2,16.8449,19.5619,2.717
TcRh2,63.5512,48.4768,-15.0744
NdH5Pt2,25.2041,19.22,-5.9841
MnCo4Cl,22.4654,20.6164,-1.849
SbPbW2C,50.6717,44.762,-5.9097
PIr2Au,41.1925,39.9384,-1.2541
Ce4TmTh,32.8087,35.6669,2.8582
TaSiNi,0.0,2.572,2.572
ScCu2Ni,21.6431,18.928,-2.7151
Li2BMo,5.0799,7.5849,2.5049
Ac4Sb2Ir,55.1967,54.2444,-0.9524
RbTiCr2,21.5126,19.5174,-1.9952
PIrAu2,41.9477,40.4679,-1.4798
Mn2CdSe,66.7029,54.7064,-11.9964
MnCdSe2,39.2265,32.0856,-7.1409
BMoAu3,32.3304,33.8052,1.4747
HfMnCo10,25.6963,22.2763,-3.42
Ac3(Zn2Pb)2,36.2008,37.6513,1.4506
HfSbS2,75.5035,55.5451,-19.9584
YInW,37.6498,27.6975,-9.9524
CsTcP2Pt,44.1114,35.1023,-9.009
Cs(LiP)2,11.3392,8.7968,-2.5423
LiY(ErIn2)2,20.4499,20.6947,0.2448
B2MoRh,14.231,16.0489,1.8179
Cs2LiP2,12.1381,11.1361,-1.002
GdY2Cd,19.0222,21.524,2.5019
Er7(TeP)4,18.9505,20.3014,1.3508
CeErTh4,53.1275,56.1669,3.0394
CeMnCo10,15.7996,16.011,0.2113
La2YPb9,48.8028,46.7221,-2.0806
Mg3(P3Pd10)2,12.934,14.0688,1.1347
PmMnCo10,15.8093,16.0408,0.2316
CeHoHg4,8.3163,9.6026,1.2862
SrTaMn,61.696,48.773,-12.9231
ScPaMo,14.8067,23.6837,8.8769
Cs2AsPPt,37.2515,29.3538,-7.8977
ThMnCo10,19.2094,19.5144,0.3051
SrCaZr,30.516,24.704,-5.8121
ScPaMo2,34.561,37.6109,3.0499