Formula,E_hull_DFT (eV/atom),E_hull_ML (eV/atom),Delta (ML - DFT)
K2NiAs,20.0258,15.4819,-4.5439
AcZn3Pt2,39.7162,32.9326,-6.7836
NpPaSe,61.5378,60.3478,-1.19
ReAsAu2,36.7423,38.7735,2.0312
Co(Ni3Rh)2,18.0173,15.0973,-2.9199
ReAs2Au,27.4125,29.2401,1.8276
TaCdSb2,36.5418,34.3781,-2.1637
TaCdSb2,36.868,34.3781,-2.4899
BaMoBr2,10.8212,11.0256,0.2044
ZrCrSb2,49.0491,41.6529,-7.3962
SiTcC2,49.5912,37.2558,-12.3354
ZrTl2Ga,48.3988,47.4681,-0.9307
ZrCrSb2,49.0837,41.6529,-7.4308
AcPa3(MnN3)4,33.0695,30.4009,-2.6686
La12Pb3N5,18.9541,13.363,-5.5911
YTa2Ge,34.0187,32.8376,-1.1811
La6CoRh2,39.4868,27.4039,-12.0829
Co(Ir3Rh)2,32.9505,33.6357,0.6853
Co(Te3Rh)2,39.3806,34.955,-4.4256
ReAsAu2,36.4162,38.7735,2.3573
ZrAg2Ru,44.9883,38.9955,-5.9928
ZrAgRu3,38.5023,34.3842,-4.1181
ScInIr,20.2279,17.9532,-2.2748
CuSiRu2,20.4651,17.1064,-3.3587
CsCrP2,27.5569,26.8745,-0.6823
RhPb2Br,44.7722,41.224,-3.5482
ReGe3P,30.9756,26.8267,-4.1489
Cr2CdPb,22.9295,22.8901,-0.0395
Tl2OsCl,37.7104,38.627,0.9166
NaInPb,32.2493,29.7403,-2.509
YCrP3,14.0089,12.355,-1.6539
TbNd2ZrAs4,25.3897,25.6012,0.2114
Tl2CoTc,46.9653,44.9981,-1.9672
ZrPaAu4,58.7034,57.9974,-0.7059
ZrCd4Ag,34.3294,31.5067,-2.8227
ScHgPdRh,21.4678,17.5854,-3.8825
YZrPdPt,62.7079,51.0593,-11.6486
CrCdTe2,28.263,26.3292,-1.9338
Sr3La(YTe3)2,30.9678,27.9123,-3.0555
Zr7Os,91.3719,77.3812,-13.9907
CoCuTe4,41.8039,36.0397,-5.7643
KYBr,12.8703,13.6273,0.7569
BeSiRh,35.6355,27.2761,-8.3594
Li2ZrAg,32.6939,27.9588,-4.7351
TbErAlAg,22.2282,23.0683,0.8402
CdCuSi2,15.3781,12.3963,-2.9818
CaTb2Nd,20.791,23.5861,2.7951
Ti(SbTe)2,31.5993,28.4309,-3.1684
RuPtRh,66.3497,50.8777,-15.472
Li2ZrAg,32.8759,27.9588,-4.9171
ErSb2Au,36.3707,35.4015,-0.9692
AgTe2Rh,41.5211,35.6624,-5.8587
AgTe3Rh,41.7908,35.3454,-6.4454
K2NiP2,6.9946,5.5749,-1.4197
Ag2TeRh,38.594,32.6999,-5.8942
TaCoAg2,47.9942,36.1343,-11.8598
CrRePb2,39.4563,41.1048,1.6486
AgTeRh,41.0192,33.6409,-7.3782
CdSb2Te,37.9273,33.9226,-4.0047
Mn(CuGe)2,26.6098,23.8508,-2.759
CrRePb2,39.5608,41.1048,1.544
Co(CuSi)2,17.987,12.5562,-5.4308
SiIr2Cl,26.9642,27.749,0.7847
Na(CePb)5,37.3185,37.872,0.5535
Co2RuW,27.2922,25.3258,-1.9664
CrRePb2,34.225,41.1048,6.8798
CuSiIr2,28.3193,29.5004,1.181
CrRe3Pb,39.9558,40.5543,0.5985
PrNdPu4,51.5761,52.5677,0.9916
CoSbRh2,38.4073,29.5829,-8.8243
CrRe2Pb,36.0023,38.9404,2.9381
K3IrF6,7.5165,7.568,0.0515
Ce2PmPr,17.5788,20.2924,2.7136
LiCoOs,0.0,6.9375,6.9375
Ti6Te2Ir,17.0302,18.5331,1.503
LaY2Te3,32.8957,30.2412,-2.6545
CaRe2Pb,35.4935,34.6006,-0.8928
Cd4Mo2O9,9.9963,11.0451,1.0488
CaRePb2,38.1643,40.1279,1.9635
Ca3CrRe,21.8595,19.8191,-2.0404
Ca2CrRe,25.1251,23.3212,-1.8039
Ca2CrPb,27.3001,25.182,-2.1181
Ca2CrRe,25.1277,23.3212,-1.8065
TaCoAg2,47.8985,36.1343,-11.7642
Cs2Na2NpO4,17.2323,17.7949,0.5626
CaCrPb,34.769,31.6973,-3.0717
KCu2N,2.2025,4.2844,2.0819
CaCr2Re,25.982,24.0792,-1.9028
CePm2Pa,35.7885,39.4174,3.6289
Ge2OsSe,27.8702,27.2219,-0.6483
Tl3ReW,48.1275,49.5413,1.4138
Ga2SnPd4,14.9199,14.6336,-0.2863
Cu3TeAu,22.6078,22.6961,0.0883
Mn2AuN,54.2747,45.7296,-8.5452
CuTe2Au,34.5758,33.7385,-0.8373
HfGa2Si,43.9544,32.9092,-11.0453
Al2CoCl,17.0241,11.3418,-5.6823
YPS2Cl,56.3522,51.222,-5.1303
PrNd3Pt,31.4694,27.3515,-4.1179
In2RuAu2,30.6668,32.1582,1.4914
TiFe2Te,7.4695,8.5032,1.0338
Y2Ho2Pu2Mn,47.1031,46.7313,-0.3719
CeY,19.4947,22.7764,3.2816
ScCrSb2,28.1458,28.6118,0.466
InRu2Au,24.9704,27.9096,2.9392
Rb2NaLu,16.1087,14.8645,-1.2442
SrIn4Ni,19.7425,17.7368,-2.0057
K3HfCr,39.3455,28.335,-11.0105
Er4Al12Fe,8.5869,10.0778,1.4909
CdSbAu,37.1574,36.4894,-0.668
Dy4Al12Fe,8.1105,9.9683,1.8578
Y3SnBi,31.9114,28.9487,-2.9627
Tb2Sm2YMg2,18.0028,19.4633,1.4605
Tm4Al12Fe,9.0882,10.5726,1.4844
NaBe3I,18.8869,17.7095,-1.1774
KMgTc,36.6425,30.8713,-5.7712
Ho4Al12Au,11.0799,12.4694,1.3896
CeSmGd2,27.3248,30.0047,2.6798
Ti2TeIr,23.6715,26.0793,2.4078
MnAu3N,49.2634,45.8339,-3.4295
Sr2MnAuN,34.3514,31.3134,-3.038
LiReRh,29.9232,27.7866,-2.1366
YHfMn,60.5733,46.3439,-14.2294
NbAlPd,46.6843,41.4111,-5.2732
RuAuN2,34.8958,33.5426,-1.3532
HfIr2Au,61.8076,55.8411,-5.9665
Y3HfMn,57.935,45.8125,-12.1224
SeN2,16.8529,17.3079,0.455
Gd2NiSn,27.2199,25.765,-1.4549
SmDy2Er5Sc,21.2945,23.4366,2.1421
CoAg2W,60.2726,47.019,-13.2536
YCr2,18.6208,10.3464,-8.2744
Zn2Sb2Pd,21.9045,19.9045,-2.0
TlIrW2,43.4919,47.9199,4.4279
ErPuCuPd,31.1532,33.9578,2.8046
YPPb3,31.4758,30.1826,-1.2932
NaTa2Mn,44.7978,46.2579,1.4601
Cs2Tm3NpO8,12.651,15.5577,2.9067
TaMnAg2,44.4081,39.2697,-5.1384
Nb2V3Tc,126.8437,99.8946,-26.949
Dy6HgOs2,21.3183,24.2814,2.9631
CdSbIr,36.0018,35.7241,-0.2777
Ta2MnAg,51.3643,47.8248,-3.5394
Na2PrYTe4,27.4061,25.9692,-1.4369
KTlSb4,40.2504,35.2951,-4.9552
TlIrW3,45.3772,47.5782,2.201
Hf(ThSc3)2,34.1202,32.4197,-1.7006
YbGeO4,0.4727,3.2696,2.7969
CoAgAu,29.8891,28.8387,-1.0504
TlIrW2,43.3936,47.9199,4.5262
PuTh2Sb,61.8551,62.031,0.1758
Pt4Rh3,72.5136,51.7035,-20.8101
Dy(Er3Th)2,32.4667,34.9063,2.4395
Ac3Sn7Pt2,42.4354,39.2046,-3.2308
AcSnPt,51.6628,46.1838,-5.479
Re2TcPb,57.3138,55.8972,-1.4166
TiTeI2N,20.1061,19.285,-0.8211
Re2TcPb,57.0174,55.8972,-1.1202
ZrReAs2,39.3982,38.2954,-1.1029
ZrFeRe2,55.6469,49.6139,-6.033
Ac2Zn4CdCu3,19.6886,20.8951,1.2065
Y2ZrC,57.0542,47.7229,-9.3313
BaMoIN2,10.5344,9.8776,-0.6568
SnTeI2N,30.151,26.7603,-3.3907
K(CoBi)2,22.8358,24.969,2.1332
KZn2Br,9.3717,9.3596,-0.0121
Ac4PtAu,60.2989,58.9301,-1.3688
LiSm(GaAu)2,22.1726,23.8334,1.6608
Ac2Sb4Pd3Pt,44.9196,39.7191,-5.2004
AcTbPdPt,48.6022,44.2448,-4.3574
BaAl2Re,23.9116,20.1578,-3.7539
LaPr3NdTh,16.1559,16.12,-0.0359
Sb2IrPd,38.3043,36.4394,-1.865
CrTc2Au,53.3655,47.5342,-5.8313
Al2SbIr,23.4677,23.9504,0.4827
PtPbSe3,58.5618,46.7753,-11.7866
Ba4Te3Br,15.4986,16.4612,0.9626
NiGe2Ir,15.9646,17.3894,1.4248
Ca3Y2N4,8.5008,7.5841,-0.9167
CaPrRh,17.0906,13.3005,-3.7901
BaAl2Re,23.4446,20.1578,-3.2869
CdSbOs2,37.7423,38.4884,0.7461
PmSmTh,38.6471,41.9865,3.3395
BeSi2SnO,40.3647,30.2038,-10.1609
Sr12LiHg6,8.7006,9.1975,0.4969
SrIO3,15.5045,14.0832,-1.4213
Fe2OsPb,35.9341,31.0165,-4.9176
Fe2OsPb,35.8827,31.0165,-4.8662
Ac6Pt2AuBr3,53.4877,49.9116,-3.576
Fe2OsPb,35.8781,31.0165,-4.8616
Ta2HgO6,7.6258,7.6797,0.0539
Re2SiRh,28.9875,28.876,-0.1114
SiRu3W,45.5787,33.0021,-12.5765
ThPt4Au,77.7068,61.8447,-15.8622
Zr2TaW,68.2281,63.5086,-4.7195
Ac3PtAuCl,49.6655,47.3172,-2.3483
Y2HoThN4,32.5573,31.3378,-1.2195
Zr2TaW,68.1182,63.5086,-4.6096
Cs2VS2,52.5767,41.4044,-11.1722
Ac2Ga3IrPd4,29.3758,29.2928,-0.083
Nb2PbI,90.2815,76.0064,-14.2751
BaNbAg,53.6061,43.1561,-10.45
Tl2TeRu,37.1698,38.5528,1.383
Y4HoEr3,15.9591,18.6473,2.6882
NaCdGa2,15.1448,14.9531,-0.1917
CdGaCu2,11.9449,11.7438,-0.2012
Ce2PrLu,19.7665,22.4647,2.6981
Pr2Y2HoEr,8.4985,10.4859,1.9874
Au2SBr2,32.2079,30.6675,-1.5404
LaCoAg,30.144,25.0476,-5.0964
GaPbSe,36.1903,34.0691,-2.1212
PrSm2PaSb5,37.268,34.1395,-3.1285
Dy5Ru4Au,24.4086,27.4827,3.0741
SiMoI2N,17.4807,15.8567,-1.624
NaCdGa2,15.1486,14.9531,-0.1955
Ca2MnIrSe,63.3689,49.2088,-14.16
Ta(TiSe)2,20.6074,19.6594,-0.9479
NaSiSe,24.9045,18.4614,-6.4432
Ac4PtAuBr2,51.7846,49.626,-2.1586
NaEu2Se,31.5185,28.8716,-2.6469
NaEuSe2,35.9407,30.5823,-5.3583
CrCuSbAu,28.3112,26.2511,-2.0601
CdCuIr,23.9732,26.3746,2.4014
CdCuIr2,28.684,31.7092,3.0252
NaAgTe3,36.5644,32.4219,-4.1425
AgOs2Pb,43.0038,45.0519,2.0481
NaCeAg2,28.0481,24.3477,-3.7004
Li2ZrRh,36.8118,30.3718,-6.4399
AgOsPb2,45.1638,45.9019,0.7381
AgOsPb2,45.2014,45.9019,0.7005
Mg3CI,18.3598,14.7887,-3.5711
AcPt2Au5,59.6733,54.743,-4.9303
TaTi3Se,20.9876,20.7857,-0.2019
NaTeBr3,20.197,18.838,-1.359
LiPuSb2,40.1376,38.0962,-2.0414
ZrOsI2,47.4125,44.4273,-2.9852
Cd3Re,54.2332,44.7762,-9.457
Zr2OsI,65.6709,59.3241,-6.3468
Pu2MnNi3,60.529,56.3012,-4.2279
La2ErPa,50.3171,46.1418,-4.1752
Pa2HgIr,44.1942,48.1036,3.9094
Na2BeTlAs2,19.1655,17.6286,-1.5369
Co2MoRh,19.3151,19.0393,-0.2758
NaHfSc,53.0545,31.5923,-21.4622
NiOsC,11.6156,15.0501,3.4345
LuPaTc2,71.3475,65.8778,-5.4698
NaCuMo,17.1152,12.165,-4.9502
NaHfSc2,45.0665,35.0853,-9.9812
Rb2(Pb2Au)3,41.7999,42.6316,0.8317
CrOs2,20.1187,27.3136,7.1949
Pd9(Pb2Au)2,30.835,32.1306,1.2956
Li2CaAc,17.8594,19.1833,1.3238
Y6Co2Sn,27.7713,22.8814,-4.8899
Li2CaTm,9.4452,10.8554,1.4102
Li2CaAc,17.9527,19.1833,1.2305
CaAcTm2,32.8676,34.5857,1.7181
CuSnRu3,34.5715,32.3383,-2.2332
CrCoOs,19.7929,23.1955,3.4025
Pt2AuCl,58.2214,45.9013,-12.3201
CePBr,6.2229,10.77,4.547
CoAgOs2,30.6409,33.0112,2.3703
LiCa3Sb,13.3847,11.3375,-2.0472
NaCu5Se4,21.1717,17.6083,-3.5635
NaFe2W,26.3914,20.4951,-5.8963
TaCd3,24.0772,25.6895,1.6123
CoOsRh2,36.5975,32.5916,-4.0059
Ac2La3YSe6,47.0321,39.1306,-7.9015
Sc3Al3Si2Ir,28.8363,23.7603,-5.076
Na3TaW,32.7518,29.8399,-2.9119
SrBeIn2,18.082,16.0865,-1.9955
TbPr2Sb3Pt4,50.0254,38.4411,-11.5842
YCu2,21.2422,18.9832,-2.259
GaTe2PI,31.2603,27.7425,-3.5177
Sn2TeRu,25.5058,26.3348,0.829
CoTcMo2,23.9455,32.1802,8.2347
NaAsOsSe2,48.1454,41.7035,-6.4419
Ba(NbI)2,65.9627,54.5297,-11.433
Pa2CoRu,39.0366,43.1307,4.0941
NaMoAs,16.8769,17.8243,0.9474
Ac2NdSb3,46.8674,45.2565,-1.6109
Ba2YRh,36.0537,30.544,-5.5097
Hf4ZrPb,120.9883,89.6007,-31.3876
Lu2ThCd,38.0661,40.3566,2.2905
Lu2ThCd,38.2196,40.3566,2.137
CrTc2Au,60.9284,47.5342,-13.3942
CoSiRh2,29.5183,22.1953,-7.3229
CoSi2Rh,20.8044,16.0287,-4.7757
Sc(SnPb)2,32.2519,30.428,-1.8239
LaReSi,36.9268,31.3941,-5.5327
Ag2AuF6,14.0017,13.4537,-0.5481
CoReAg,27.1397,27.7026,0.5629
Hf6ZnFe2,88.5977,61.2014,-27.3964
CrTc2Pb,62.3309,54.6223,-7.7085
Y2Cu,22.786,19.8211,-2.9649
Y2Mg3In2,12.1901,12.2236,0.0334
CuSiRh,24.9884,19.643,-5.3454
AlGeTe3,36.2028,31.6799,-4.5229
SmAg2F6,13.5657,12.7548,-0.8109
Y(ReSi)3,26.4311,24.9156,-1.5154
TlCuMo3,32.8824,27.9697,-4.9127
Y2CoGe2,20.5489,17.641,-2.908
LiPbW2,32.9694,36.4461,3.4768
NiGeIr,25.5011,24.1055,-1.3956
NaNdInPt,39.144,33.7178,-5.4262
Li2ZrTl,37.6324,34.7817,-2.8507
La2NbPb2,64.2403,54.4,-9.8403
Li2ZrTl,37.5639,34.7817,-2.7822
NaSrNb,60.9382,49.6197,-11.3185
Ag2AsW,61.6002,47.3275,-14.2727
K2Pu2Br7,21.0588,21.3079,0.2491
Th2AgSb,45.7348,45.9611,0.2263
Y3(GaRh)4,24.504,19.9915,-4.5125
TbTlAgTe2,34.3058,33.7521,-0.5538
Rb2(TmTe2)3,30.4111,30.0727,-0.3384
ZrCd3,36.0928,33.9362,-2.1566
LaNb2Pb,97.283,80.1081,-17.1748
Cs2NaWCl6,8.1322,8.5289,0.3967
Tl4SbOs,49.4011,49.1022,-0.2988
NaZrCd,44.0573,40.0649,-3.9924
LaPb3W,50.0301,48.7003,-1.3297
Li2ZrTl,37.5364,34.7817,-2.7548
Nd2Er4Tl,26.7375,30.2301,3.4926
Na3ZrCd,39.1486,32.936,-6.2126
La2NbPb,74.506,61.2957,-13.2102
LaPb2W,49.3116,47.6502,-1.6614
CdPb2Au,43.0175,44.5976,1.5801
TlCdAu,39.1019,40.1504,1.0485
ThAlCu,21.0491,23.8395,2.7904
GaHg2Pb,13.4092,15.3602,1.9511
MnPI2N,43.3669,35.0951,-8.2718
NaZrCd3,36.8025,33.0618,-3.7407
AgAs2W,56.4765,44.4012,-12.0754
Ag2AsW,61.4061,47.3275,-14.0786
Ag2AsW,61.4076,47.3275,-14.0801
InP2Se,19.0752,17.0888,-1.9864
Pr(PaSe2)6,50.1679,44.6404,-5.5275
NaCu2AuCl6,7.9986,7.6653,-0.3334
CrTcRh4,49.9843,38.4547,-11.5296
Pr5C2Cl9,1.1411,0.0,-1.1411
Ca3(Mg2Zn)2,5.7954,5.8583,0.0629
Ca2MgRh,11.9772,11.0077,-0.9695
InP2Se,19.2561,17.0888,-2.1673
CoP4Pb,21.6401,20.0795,-1.5607
Li(CaPb)2,19.6608,21.5775,1.9167
Sn2As2Pb,18.978,20.5628,1.5848
Ba2HfPb2,45.3314,37.9728,-7.3586
CrTcRh,50.323,41.0921,-9.2309
CrTcRh2,50.0959,39.395,-10.7009
Li2ZrW,35.0412,32.9314,-2.1098
ThAl(CdCu)2,21.8053,21.8101,0.0048
SrYO3,19.848,18.1363,-1.7117
CaMg2,0.3977,2.4293,2.0316
Ce4Ho2Rh9,39.1761,30.928,-8.2481
RbNa(GeCl3)2,5.9269,4.4613,-1.4657
NaYb3,30.9624,30.7086,-0.2538
Na2CrC,40.6792,35.9541,-4.7252
LaPr2Nd2Er,15.4681,15.225,-0.2431
LaTaSi,34.6518,30.2119,-4.4399
NiAg2Au,29.2046,27.3369,-1.8677
RbTe3Ir2,30.8733,32.5089,1.6355
ScFeSiIr2,38.9365,36.4651,-2.4713
Li3RuSe,13.7722,11.9034,-1.8688
SmEuTlAu,37.3031,39.3684,2.0654
ReTcRh3,57.5666,45.5064,-12.0603
AcIn3NiIr,24.1215,26.7755,2.654
Na2CdIn7,20.9851,20.3943,-0.5909
La2TmSb,44.1915,36.6764,-7.5151
KRePb,36.4421,37.3939,0.9519
Sb5(Te4Pb)3,33.8075,30.9948,-2.8127
SiNiP2,10.0716,13.5971,3.5255
Pm2AlVO6,7.7988,8.9655,1.1667
CrBiI3,26.9009,26.4581,-0.4428
Na2Cd2In,19.9293,19.0664,-0.8628
Ac2In(SnPd2)3,28.9073,27.5463,-1.361
ZrNiP4,23.074,20.4107,-2.6633
RuRh2Cl,41.5366,31.9941,-9.5425
Rb2CaP,16.8337,13.6814,-3.1523
Ga2RuPb6,39.314,40.2345,0.9205
CsAc2Sc,39.9063,41.7918,1.8855
LiRuSe2,28.241,25.1995,-3.0415
BeCrNi,12.5788,14.4075,1.8287
LuZrTl2,58.2788,55.9657,-2.3131
Be2CrNi,14.2851,14.4423,0.1572
CaHfIr2,65.8345,52.0791,-13.7554
Ba2YAu2,37.072,34.6583,-2.4137
ThAl2Cu3,12.4515,13.9741,1.5226
LuThAlCu,28.2445,30.445,2.2005
CaHf3Ir,102.0088,72.1675,-29.8413
CaHf3Ir,103.8693,72.1675,-31.7018
Ca2SmWO6,24.0948,22.391,-1.7038
PIrIN2,29.7218,25.2886,-4.4332
Ce2NCl,16.6998,19.8298,3.13
Si2RuRh,34.2587,26.3875,-7.8712
NaIn2CuPb,24.8265,24.8197,-0.0068
TbCu(PO4)2,7.8153,6.3668,-1.4485
TaSbSe3,45.293,37.9588,-7.3343
Ac4SmPt5,71.9298,59.9988,-11.9309
CaTa(PbO3)2,21.3504,21.605,0.2546
AcCd2CuPt2,47.9305,40.1272,-7.8033
SiRhF2,28.0222,19.2423,-8.7799
SrSi2IrW,36.9701,31.0668,-5.9033
CaSiIr2,34.1072,30.8185,-3.2887
SiIrPt2S,59.5448,44.9937,-14.5511
GaRuPb2,29.0404,31.8968,2.8564
CuNi2Os,17.2706,18.544,1.2733
ThAl3Cu,2.1574,6.8642,4.7069
NaVGe2Os,44.774,38.2998,-6.4741
CuNiOs,21.4953,22.7918,1.2965
Ba2Ce2ErSc2,13.0695,15.7924,2.7229
Rb2TlIn,18.7302,18.878,0.1477
CoBi2WO6,10.5097,14.0768,3.5671
InCo(AuO3)2,10.5835,11.4506,0.867
Ce4Pr2Rh9,34.819,26.5463,-8.2727
Th2AlCu3,21.75,23.3724,1.6224
KSiMo,14.8775,13.3981,-1.4794
ReSnO2,62.3282,53.2315,-9.0967
CeZrPd4,12.1215,13.7414,1.6199
Th(Al3Cu2)2,11.3703,11.3175,-0.0528
MoAs2Pt,31.1868,26.4993,-4.6875
TbPr2ErSe5,30.6275,25.8249,-4.8026
Be2TcAs,25.2483,24.9166,-0.3317
Ba2TaCd,14.6573,16.2297,1.5724
ThAl7Cu2,11.0514,11.7779,0.7264
MoAsPt2,51.037,40.3159,-10.7211
PmNbCr2O6,20.0703,16.7411,-3.3292
Hf2TlMo2,65.3993,52.8952,-12.5041
Os3Pb,45.3706,48.5689,3.1983
MoAsPt3,60.0046,44.5868,-15.4178
Ba2TaCd,14.5663,16.2297,1.6634
SbIrPt2,66.813,53.6231,-13.1899
NaTe3C,44.2328,36.7742,-7.4587
Mo2AsPt,32.6018,28.9979,-3.6039
TiSbW2,32.055,34.3239,2.2688
CdCoAs2,15.8309,14.9141,-0.9168
NaSb3C,46.0673,35.4377,-10.6296
InGa2CuO6,14.4275,12.2203,-2.2072
CdCoAs2,15.8109,14.9141,-0.8968
NaTeWI2,31.5261,29.3383,-2.1878
K(SnPb5)2,44.5369,45.0964,0.5596
BaCdAu2,28.1128,29.7182,1.6054
KGeAs3,10.6491,10.6801,0.031
SbIrPt,59.3807,50.1701,-9.2106
Ac3(Pm3Tm)2,36.7428,39.8528,3.11
As3PSe,35.9169,31.5165,-4.4004
AsPSe2,38.7241,34.5151,-4.2089
AsPSe2,42.543,34.5151,-8.0278
BeSbBr,29.4983,27.1536,-2.3447
BaCdIr2,26.9145,29.5913,2.6768
Gd2SnPd,26.4685,26.4228,-0.0457
Tb2CeTm4Sc,25.7735,27.7634,1.9899
BeSbBr2,25.0208,23.0474,-1.9734
Ta3TlTe,43.2202,43.9493,0.7292
SbIr2Au,45.096,46.2,1.104
Li2CdInIr,17.8294,17.9959,0.1664
LuHfSc2,47.0508,38.79,-8.2608
BaCdIr2,27.1658,29.5913,2.4256
In2NiIrC,30.6299,27.6689,-2.961
NiSe,22.0989,20.6144,-1.4845
InMoPb,29.9512,31.8128,1.8616
InCuMo2,26.2125,21.739,-4.4735
Sr3Zr5S12,39.7198,29.1445,-10.5753
InCuPb,16.4285,20.1584,3.7299
TeAs2Pt,38.3172,31.6766,-6.6406
BaCdOs,21.9038,23.1159,1.2121
InCu3Mo,21.7028,16.629,-5.0737
InCuPb,16.5091,20.1584,3.6493
Th12Ir5Pb3,35.893,40.6942,4.8011
TeAsPt,47.6182,39.2352,-8.383
ScTe(PbO3)2,34.0669,32.3768,-1.6901
LiSiTc2,55.5046,47.2735,-8.2311
TeAsPt3,65.1264,48.8885,-16.2379
YGa4Rh,10.8831,10.2285,-0.6546
ZrPd4Pt,42.5814,37.7601,-4.8213
CuSeN2Cl,23.5121,20.3605,-3.1516
CaMgC,23.0015,17.6704,-5.3311
Ca2PrSm,8.4595,9.7467,1.2873
NaLa2Ti,39.3949,30.3671,-9.0278
BaThCuS3,33.4928,27.674,-5.8187
La4OsSeBr2,38.7297,31.5605,-7.1692
In2Ge2Sb,17.3098,17.8787,0.5689
B2PC,20.6008,16.6727,-3.9281
Er4Ir2PdRu,31.1452,32.6385,1.4933
TlNCl2,24.1825,23.3526,-0.83
RuPbSe,33.4564,32.6655,-0.7909
SrY2Cu,27.1041,21.573,-5.5311
Rb2RuSe,40.7991,33.8959,-6.9032
BaSbRh,30.8772,25.7279,-5.1493
Ta2CrSe,58.1711,46.013,-12.1581
BaCdRe2,67.2269,52.3581,-14.8688
CsBaV2,71.9139,56.2886,-15.6253
PmEr4Zr,40.7717,39.5321,-1.2396
Sr(YCu)2,31.6014,24.6556,-6.9459
Y4AlIn,24.4007,21.6334,-2.7673
Tl4SbMo,44.7258,44.3431,-0.3827
Na2LaW,31.8102,28.2283,-3.5819
Ta2CrSe,58.056,46.013,-12.043
LiIn2AgI4,20.4974,19.6232,-0.8742
BiSNCl2,34.2345,29.7988,-4.4357
Si2NiC,25.2019,13.1231,-12.0788
Tm2SI2,31.2816,29.3558,-1.9258
Pr2Sm5Ho12,24.086,25.4153,1.3294
Ba2NiPdO5,4.1935,3.73,-0.4635
CdCuBr2,15.3416,14.5284,-0.8132
Cd2CuBr2,16.3323,15.9836,-0.3487
ZrCN2Cl,43.4744,34.7387,-8.7357
Mn2Te2S,67.6807,56.1455,-11.5352
AsRuPb2,35.3761,34.822,-0.5541
Sb2Te2S,42.4066,35.8636,-6.5429
LiAg2Au,27.495,25.0587,-2.4363
LiSmScRh,19.7965,18.209,-1.5876
AsRuPb2,35.8755,34.822,-1.0535
Be5Co3,7.0905,3.958,-3.1325
Sr3TaTi,25.0634,20.7979,-4.2655
Nd4PuIn15,22.9897,24.0524,1.0626
As2RuBr,17.424,15.7897,-1.6343
BaCdW2,25.5661,27.8016,2.2355
TiV2P,57.4922,46.1583,-11.3339
Ac6Si2CI3,44.7487,43.1743,-1.5743
TbZrAu4,51.6474,50.6481,-0.9993
RbBa2WO5,5.0392,6.4921,1.4529
AsRu2Pb,26.4236,26.9644,0.5407
NdTmSb,32.7723,33.0937,0.3213
Sr2AcHfO6,14.8798,14.9637,0.0839
PrHoSi,12.4694,13.0982,0.6287
LiAcGaPt2,49.5588,40.688,-8.8708
BaLi2NCl,8.668,8.5456,-0.1223
AcTh2(CuGe)2,32.2785,35.5513,3.2728
AsRuBr,19.3588,18.4901,-0.8687
Th2CuSi3,23.9921,23.3691,-0.623
BaSb2C,38.8635,30.5104,-8.3531
TmZrRh4,53.7418,42.4782,-11.2636
Sb2MoPt,48.8096,40.8126,-7.997
AsRu2Pb,26.5567,26.9644,0.4077
In(SnSb)2,30.4047,28.0903,-2.3145
BaLiAg2,17.7214,14.61,-3.1115
SbMo2Pt,41.3367,35.4626,-5.8741
LaNiAg2,30.0909,24.2357,-5.8552
Sm3NCl7,11.9164,13.5372,1.6209
Sb2RhSe,41.9422,34.4709,-7.4713
Tb4ErZr,33.8673,34.2691,0.4019
SmZrAu4,51.4201,50.3903,-1.0298
LiTiInAg,15.2915,14.1085,-1.183
YPS2,51.1218,41.8021,-9.3196
RbLuTl2,34.125,35.4613,1.3363
BaAcPtO6,9.9316,9.3824,-0.5492
SrLa(GaPt)2,42.5641,32.9552,-9.6089
Ti2InSb2,23.8707,22.4582,-1.4126
KNiAg,17.3799,15.55,-1.8299
BaLi2CdIn,11.0084,10.9741,-0.0343
MnZnPt6,80.1715,58.8869,-21.2846
Y(CoGe)2,17.9463,17.1225,-0.8238
LiCd2InRh,22.5006,19.4023,-3.0983
Ca2CoTc2,38.706,32.9841,-5.7219
Hf2Ni2Pb,62.6874,49.2683,-13.4192
CdIn2Ir,25.8323,27.5616,1.7293
SrMo2Ru,18.7964,19.0161,0.2196
Sm2Al3GeAu4,29.0823,29.0567,-0.0256
LiCdInAu,22.5791,22.5404,-0.0387
SrMoRu2,17.3305,19.173,1.8425
TbTmInAu,30.4259,33.0016,2.5756
Na4Np2Cl9,11.9206,12.3052,0.3846
Na4Tb2Cl9,6.7172,6.7455,0.0283
SrMoRu2,17.554,19.173,1.619
AlSiF,14.9698,14.3705,-0.5993
Sm4TlAu3,35.9212,37.6311,1.7099
Rb2Se2S,30.7655,23.29,-7.4755
Re2Se2S,46.7079,40.8391,-5.8689
Tl2Se2S,47.492,40.6427,-6.8494
CrTcMo2,24.1761,26.5625,2.3864
TlNiPt4,69.411,53.0736,-16.3374
CdTe2,31.9051,31.6084,-0.2967
AsPtW2,45.1577,41.3085,-3.8492
Cs(BiC)2,52.1026,43.9945,-8.1081
ScNCl2,27.6831,25.0933,-2.5898
AsPt2W,57.8382,46.0586,-11.7796
Zr4PaAg,82.0171,71.201,-10.8161
LiAg2Os,26.7322,25.2543,-1.4779
K9(RbNa2)2,14.051,11.6852,-2.3658
FeAgTe2,29.3062,27.9816,-1.3246
CeY3,10.435,13.23,2.795
CdIn2Os,25.5609,27.6183,2.0575
NaAlSbTe3,29.3093,26.9279,-2.3813
SbRhPb,48.8275,42.6044,-6.2231
LiReAg2,26.1647,24.4181,-1.7466
Zn5(Sn4Pb)3,13.3741,14.8897,1.5156
SmEuPb,34.9855,37.2001,2.2146
YMgPS2,41.3199,33.7786,-7.5412
TlReMo2,34.1642,34.9726,0.8083
Ta2Cu2Ru,14.073,18.6221,4.5491
ZnGe2Pt,28.8971,24.0387,-4.8583
SbRhPb,49.3992,42.6044,-6.7948
FeAg2Te,26.7752,23.5344,-3.2408
Fe2AgTe,19.2855,18.1437,-1.1419
Sc3NCl,16.9645,16.2031,-0.7614
TaCrRu,54.8885,20.8285,-34.06
HfTa2Ru,58.2626,52.035,-6.2276
LiAg2Pt,38.0009,28.9655,-9.0354
HfTaRu2,52.6358,45.9138,-6.722
Zr4TcAg,86.0536,73.1059,-12.9476
CoSbAs2,22.2003,19.775,-2.4253
TiNb2PtN,74.8523,61.1636,-13.6888
Rb2Na9Cd4,20.1269,17.4019,-2.725
Na2FeCu,30.6285,24.7607,-5.8679
Sm(GaAu3)2,35.8956,37.0909,1.1953
NaYTl2,31.9355,33.8288,1.8933
HfTePd,47.1272,35.3506,-11.7767
In(ReOs)2,27.3129,34.2196,6.9067
SbRhSe2,47.8669,34.0892,-13.7777
LiBiSb2,36.1457,31.1618,-4.9839
HfTePd,46.9768,35.3506,-11.6262
TaBi3Sb,49.7506,49.2237,-0.5269
ScNbNi2Rh,42.7093,34.1471,-8.5622
NaHoTh,39.8264,40.9518,1.1254
Hf2TePd2,65.2692,50.4035,-14.8657
LiAg2W,59.1692,44.8333,-14.3359
TlCu2F6,7.7598,9.1656,1.4059
Ta2AsSe,47.473,47.4734,0.0005
Cu(AuF3)2,12.9266,14.2432,1.3166
SnGe2P,6.3982,9.1748,2.7766
PmTlSb2,41.0033,39.2672,-1.736
In2Bi4S9,46.6777,38.5345,-8.1432
Dy2Y3Ni4,55.7668,49.8506,-5.9162
CdIn2Te,25.1891,25.2292,0.0401
Zn2CuF6,2.6221,4.376,1.7539
Na4Zn2Sn5,19.6804,18.7565,-0.924
FeCo2F6,12.298,11.0881,-1.2099
Rb(AlCu)2,3.1147,3.6068,0.4921
Ca2TaI,14.5246,16.7351,2.2106
Tl2FeF6,11.367,12.1302,0.7632
FeSn2F6,7.7806,7.8553,0.0747