Formula,E_hull_DFT (eV/atom),E_hull_ML (eV/atom),Delta (ML - DFT)
Ta2AsSe,47.473,47.8484,0.3755
Cu(AuF3)2,12.9266,12.1539,-0.7727
SnGe2P,6.3982,9.3514,2.9532
PmTlSb2,41.0033,37.7264,-3.2769
In2Bi4S9,46.6777,38.4658,-8.2119
Dy2Y3Ni4,55.7668,49.085,-6.6818
CdIn2Te,25.1891,25.3528,0.1637
Zn2CuF6,2.6221,3.2044,0.5823
Na4Zn2Sn5,19.6804,18.415,-1.2655
FeCo2F6,12.298,8.5216,-3.7764
Rb(AlCu)2,3.1147,3.2133,0.0987
Ca2TaI,14.5246,16.6404,2.1158
Tl2FeF6,11.367,10.35,-1.0169
FeSn2F6,7.7806,7.9669,0.1863
FeCu2F6,9.8964,8.0983,-1.7981
Dy4Ga5Si2,15.8416,15.9546,0.113
ZrCu6,21.0912,18.523,-2.5682
TaCuRu2,20.0419,17.3224,-2.7195
Zn2BiF,16.5656,17.4109,0.8453
Tb5Sc2,15.7722,19.8466,4.0744
TbMn2V,89.011,73.3089,-15.7021
V2Zn2In,54.343,44.423,-9.92
Cu2PSe,21.3019,18.3198,-2.9821
FePPd5,22.1002,22.1557,0.0555
Y6CuPb2,27.0633,26.8068,-0.2565
Li2TiAu,7.4593,12.6673,5.208
AlSiHg,19.7011,17.1849,-2.5162
CdInAu2,33.3068,34.5972,1.2904
BaLiCdIn2,13.2282,13.3845,0.1563
Cd2GeF6,12.6062,12.1435,-0.4627
TaCuRu,21.4771,24.6647,3.1876
KZn2Si,11.4475,10.4299,-1.0176
NaTb2Ho,26.6806,28.058,1.3774
BaReOs2,44.3255,42.331,-1.9944
Ac6Co(PtBr)2,55.5793,50.382,-5.1973
LaDy2YHo,25.604,24.5996,-1.0044
Na3ZrTe,43.3508,35.0919,-8.2589
NiAgIr,27.6707,28.7228,1.052
ZrTaC,67.5257,56.3977,-11.128
Sc2Cd2Ni,12.1531,13.5362,1.3831
BRh3Pb,31.304,29.341,-1.9629
Rb5(PbCl4)3,0.0,1.0725,1.0725
La12Pb3C5,35.9257,22.6925,-13.2332
Cr2OsRu,22.4009,20.9642,-1.4367
Ti5SnAu2,21.5554,16.4305,-5.1248
MnSN2Cl,42.4467,34.555,-7.8917
SrSnSb2,30.5722,26.342,-4.2302
LaNbPdN2,50.4821,39.3402,-11.1419
Sr2Y,16.7052,15.652,-1.0532
Pr(HoIn4)3,19.4754,20.6902,1.2148
BaReW,42.5195,41.0981,-1.4214
Ba(TePb)2,33.6598,33.6258,-0.034
Zr(SeS)2,61.0112,47.2994,-13.7118
CuTcIrPb2,50.7289,48.9475,-1.7814
Sr2Y,13.6731,15.652,1.9789
Sm2Se2S,32.6568,28.7656,-3.8912
AlSi2Ag,26.451,20.9442,-5.5068
Al2CdBr,9.3287,10.174,0.8454
TaCrRu,24.4452,19.4787,-4.9664
Ba2OsNCl,25.1943,21.0891,-4.1051
LiCu3Br4,17.2445,14.6689,-2.5756
Ta2CrRu,50.1056,44.9928,-5.1129
TaCrRu2,44.7238,37.1938,-7.53
Ca2ZnGeAu6,31.4231,32.3368,0.9137
U(SbAu)2,44.9615,43.4358,-1.5257
LiAgOs2,29.199,31.6662,2.4672
TaCrRu2,44.9381,37.1938,-7.7443
Mo2AsIr,26.8022,24.4355,-2.3668
Sb3SeS,48.59,36.4363,-12.1537
YTaP2S,40.5757,35.027,-5.5487
MoAs2Ir,15.9841,18.362,2.378
MoAsIr2,30.9648,34.0692,3.1044
MoAsIr2,30.9529,34.0692,3.1163
AcTb(H3Ir)2,12.1024,14.8751,2.7727
MoAs2Ir,23.0595,18.362,-4.6974
KMo2Ir,27.9295,24.4653,-3.4642
Sr2In3Hg4Pb,13.4934,14.3133,0.8199
Sc2SiAs2,28.4871,21.3779,-7.1092
Be2PbBr,23.9248,22.1544,-1.7704
SmAl2GaAu4,28.0883,30.0174,1.9292
LaSmGePt,37.3561,28.0433,-9.3129
YCu,30.9928,26.9229,-4.0699
BePbBr2,26.1132,24.1616,-1.9517
CdInPt,42.6721,33.8184,-8.8537
TaCr2Ru,42.9425,34.3283,-8.6142
SrY2,16.8972,16.2443,-0.6529
LiAgPt2,52.4067,37.785,-14.6217
TcNi5,20.6747,21.247,0.5723
Bi2Sb2Au,49.2719,46.9644,-2.3076
La3RuPb,26.625,21.5429,-5.0821
Tl2Sb2Au,44.461,41.8535,-2.6075
K(SiTe)2,25.1977,20.8619,-4.3358
Sm2Y4Er2Th,25.5794,27.7844,2.205
LiReAg,24.2369,24.7752,0.5383
SiTe2,33.2952,30.3913,-2.9038
SrY,0.0,1.8943,1.8943
MnNCl3,32.6895,27.7682,-4.9214
Na2SrAlSb2,22.3886,18.0001,-4.3885
Ac2CdAu4,47.8326,49.3063,1.4737
Si2Te,20.2076,17.4641,-2.7435
LiCa2Al,6.3856,6.6198,0.2342
LiAgSb,25.4283,21.3634,-4.0649
Pm12Pb3C5,20.152,19.8865,-0.2655
NCl,3.4322,2.423,-1.0092
SrY8,14.8713,16.4015,1.5302
LiTa2Ag,26.7358,27.566,0.8302
SbPdSe,37.4529,31.4495,-6.0034
La2SiW,39.7083,30.5998,-9.1085
AlCd2Br,13.1691,14.8564,1.6873
Sb2Pd2Se,30.9976,25.8481,-5.1495
Ta2AsSe,47.281,47.8484,0.5674
YCu,0.0,26.9229,26.9229
CdPb3,44.2661,45.6054,1.3393
Al2CdBr,9.3822,10.174,0.7918
CdCoAs,17.7056,16.0948,-1.6108
Na2B2SbO6,13.5012,11.5292,-1.972
Al2CdBr,9.4024,10.174,0.7716
Ba2TbSb2,18.0825,17.1529,-0.9296
Tb3PaIn12,23.7218,25.0766,1.3548
CdPb3,44.2608,45.6054,1.3446
Ba2TmSb2,18.9425,17.7899,-1.1526
PrLu2Pu,33.7732,36.7156,2.9424
SnRu2O,30.6808,28.8533,-1.8275
Mg2TaRu,10.61,15.4492,4.8393
BeSb,23.0844,19.5041,-3.5803
K4Rb2Na9,18.2609,14.6681,-3.5928
La2Sb2Au,41.8724,33.1688,-8.7036
Ta2OsN,38.9748,39.3346,0.3599
Pr(HgSb)2,13.3032,10.7917,-2.5115
KTiI3,12.6127,14.569,1.9563
LiAgW,68.2713,52.3741,-15.8972
Mn2SnMoC,71.7393,55.3869,-16.3524
LaSiHg,21.8899,15.3957,-6.4942
TiPAu,8.3339,7.5905,-0.7434
La9(NiRh2)2,38.2282,25.3753,-12.8529
Na4Mn2Br9,22.5677,21.073,-1.4946
Na4Tl9Pb2,43.986,43.1945,-0.7915
Th3MgH8,17.2763,18.1018,0.8254
Ca2TaCr2,35.8562,25.9037,-9.9525
LiAgW,68.9212,52.3741,-16.547
NaTcO3,17.176,16.275,-0.901
LaHfCu,61.2706,44.8486,-16.422
Cd2CoAs,18.1317,17.3854,-0.7463
Re2SbRh,43.97,40.2342,-3.7358
Tb4TmIn15,21.3157,22.5303,1.2147
K2AcF6,12.9323,12.7942,-0.1382
Ac2Pt2Pb3,65.8658,58.5124,-7.3534
Rb(AlSn4)2,16.0655,16.7389,0.6733
Sb(PbI)2,38.9653,37.7089,-1.2564
TmHfTh,73.2549,66.8044,-6.4505
TbTlCuBr5,14.5111,16.2675,1.7564
Rb2ScGe2,13.2752,8.4599,-4.8153
LiAl2As,19.5355,14.8394,-4.6961
YTl(PS4)2,49.9659,42.5486,-7.4174
CdIr2,35.5194,39.4646,3.9452
LaSiPb2,42.6579,37.4931,-5.1647
CoHgOF2,11.0149,9.2704,-1.7445
Sr2NCl3,18.9384,20.4461,1.5077
LiAl2As,19.5134,14.8394,-4.6741
Ac2Zn3Ga4Ru,21.2306,21.1223,-0.1083
CdIr2Au,38.8877,41.4377,2.55
CoAsIr,26.1675,27.3832,1.2156
Ta2FeSe,30.9474,31.4831,0.5357
CoAsIr2,30.487,31.5761,1.0891
LiAl2Br,13.9201,11.9029,-2.0171
Sr2YCu,24.9053,22.2791,-2.6262
NaPmSm,24.9349,25.6759,0.741
BaLiAl2,13.8705,10.2152,-3.6552
Sc2SbBr2,21.2981,21.1106,-0.1875
Sr3Cr5Te12,15.2355,13.2748,-1.9607
Ba4Sr2N,3.9086,5.2356,1.327
Ac5PtPb2,59.5546,58.1216,-1.433
LaCoAs,28.1612,20.6512,-7.51
La2CoAs,33.7036,24.6363,-9.0673
Y5Pb,20.1117,23.0455,2.9338
LiCaAl2,5.8277,5.6289,-0.1988
Pm2ErThAs4,21.6445,24.5881,2.9437
ScPdRh2Br,30.6129,22.9336,-7.6793
SbRuO2,29.1929,28.3688,-0.8241
SrYCu,28.5554,25.4402,-3.1152
LaTlSi,38.9411,32.6516,-6.2895
Rb2TaSnSe4,26.3898,23.3925,-2.9973
SrAgI3,12.9317,13.8814,0.9496
Na2NbZn2,39.2387,32.6366,-6.6021
TaSbRh,43.4594,39.3304,-4.129
TaSbRh,43.4308,39.3304,-4.1004
LaTa2Si,35.1752,32.6555,-2.5197
Zr2NiP,56.2901,46.0138,-10.2763
SrPmTe2,29.3118,29.4258,0.1139
Ac2PdAuO5,20.1984,22.4961,2.2977
Ta2RhSe,42.7723,38.9131,-3.8592
LiAl2Cl,6.6661,5.802,-0.8641
Sc2TlP,31.9366,30.0187,-1.918
Sb2TePd,37.8466,32.406,-5.4406
SbTePd2,26.9884,24.9943,-1.9942
Sb(TePd)2,29.4878,27.0272,-2.4605
BaScCo,7.816,6.9783,-0.8377
Sb3TePd,39.6696,32.4395,-7.2301
YCuTc2B,78.4636,65.8478,-12.6158
As3PdRu,17.3744,14.6161,-2.7583
LiAlCu,7.3657,7.1685,-0.1972
SmGaAu,21.6807,25.078,3.3973
Ca2FeRe,28.8268,24.7902,-4.0366
Re2PtCl,44.4517,38.6036,-5.8481
Ac(PtPb)3,65.2661,53.4767,-11.7894
NaCrBr2,22.9454,21.3417,-1.6038
Sb2TePd2,29.8762,26.3095,-3.5668
BeP2NCl,24.0345,18.9954,-5.0391
Ac4PtSe3,59.8546,54.1879,-5.6667
Ba2ScCo,1.5882,3.1161,1.5279
Cu2SnAs2,25.044,23.0164,-2.0276
BaScCo,1.7962,6.9783,5.182
Ca2FeSb,30.558,22.8242,-7.7338
CoReAs,24.8544,25.1249,0.2705
Sc2Co2Ge,9.38,8.8715,-0.5085
MnAgPb,61.4992,53.6238,-7.8754
MnAg2Pb,53.9887,46.5214,-7.4674
Pu(ScCo)2,11.4367,14.991,3.5543
Ba2HoPdO5,5.5894,5.6212,0.0318
Ba2PdPbO5,7.4301,8.5676,1.1374
SrY2Cu,27.4507,22.4879,-4.9629
Sc2Cu2Au,38.9272,32.891,-6.0362
Ca2FeTc,41.4812,34.3006,-7.1806
Mn2SiAg,61.3976,49.1122,-12.2855
Sc2NClF,19.0588,17.6727,-1.3861
TlCrMo2,16.1203,20.0634,3.943
LaPb,38.3156,33.778,-4.5376
RePdO6,23.4349,23.0491,-0.3858
Dy2Sc2Tl,18.5734,21.8729,3.2995
TlRe2Cl,34.9268,36.4862,1.5594
KIrS,32.0089,28.2602,-3.7488
BaNiAg,17.2468,13.712,-3.5348
AlNi2Mo,25.0384,22.3652,-2.6732
Ag4Mo2O9,13.6836,13.1412,-0.5425
ZrTa2C,58.9571,51.6085,-7.3486
Li2MoRu,9.7684,10.6124,0.844
Co3CI,22.8016,19.4811,-3.3205
HgI2NCl,20.4534,19.6003,-0.8531
TbTm2ScAs4,21.5906,21.3365,-0.2541
LaMoBr2,22.7037,14.812,-7.8917
TaSbPt2,64.9581,49.0047,-15.9534
Y(CoGe3)4,13.2015,13.0722,-0.1293
Sc2CoSe,10.2011,11.6809,1.4798
GaTcTe2,46.5073,43.5667,-2.9406
Ac5PtSe4,58.7926,53.2461,-5.5464
LiBeSn,8.0992,5.9544,-2.1449
GaTcTe,31.257,28.9126,-2.3444
GaTcI,27.4222,25.7604,-1.6618
Cd2Pb4O9,11.2429,13.6315,2.3886
InSbSe3,42.0174,33.7516,-8.2658
AlMo2Br,21.9634,18.1646,-3.7988
Al2Ga4O9,12.5789,12.1967,-0.3822
Al4Ga2O9,1.956,3.5548,1.5988
Np2Cu4O9,2.7958,6.0505,3.2547
NaCu4Pb,17.4372,17.917,0.4798
Al4In2O9,0.0,1.2848,1.2848
Gd(InCu)2,16.2438,17.9199,1.6761
Ta2RuSe,26.6455,38.307,11.6616
LiMoRu2,13.4601,16.2984,2.8383
Rb3CoNCl4O3,6.0474,3.5929,-2.4545
Ho(ScTl)2,28.0992,29.9785,1.8793
Li3InIr,14.8482,14.6754,-0.1728
MnZn3Se4,38.8353,32.9515,-5.8839
Ce4AgBi12,45.9411,46.3783,0.4371
CoAs2OsSe,39.6261,36.134,-3.4921
MnCd2Pb,47.8827,41.8065,-6.0762
MnCdPb2,56.3347,52.5185,-3.8162
Ta2CdPt,45.7182,41.8324,-3.8858
Tb5Pr5Sm,12.4633,14.115,1.6517
LiAlOs,19.0089,20.252,1.2431
Ta2CdPt,45.4739,41.8324,-3.6416
CeCuO2,0.3031,3.5748,3.2717
MnCd2Pb,47.9694,41.8065,-6.1629
Nd4In12Ag,21.2423,22.0438,0.8016
Pr12Nd5Ho2,6.6031,7.9723,1.3693
Pr12Nd5Sm2,6.2509,7.6115,1.3605
GaTe2Pd,30.3148,29.4679,-0.8469
Na2Cu2Pb,23.3877,22.3335,-1.0543
Co2Ir2Ru,18.8035,21.3471,2.5436
Yb2NCl,23.5624,26.4446,2.8823
CoSi2P,17.4308,12.2358,-5.195
Na2YGa,15.5589,14.614,-0.945
Na2Be2ZnAu5,28.3515,27.6883,-0.6633
Ni2As2Pd,25.3764,20.7858,-4.5906
ReBW,26.4601,31.6577,5.1976
Y2BrCl2,60.2223,58.3858,-1.8365
ZrGe2C,45.5296,36.8616,-8.6681
CoSb2As,31.4558,24.7059,-6.7499
VGaCo4,26.9227,24.4738,-2.4488
Zr2GeC,58.2445,47.6969,-10.5477
AlMo2Br,21.8517,18.1646,-3.6871
Co2SbC,33.9733,26.3937,-7.5796
ZnTcW2,44.7246,45.1995,0.475
Co2Te3Pb,28.5578,28.3239,-0.2338
NaSrMn3,69.9579,58.3771,-11.5808
Ti2Si2Os,7.4072,8.8256,1.4183
Na3Sn(BiTe3)2,37.5335,34.8477,-2.6858
CoSb2As,30.9574,24.7059,-6.2516
CoSb2As,31.388,24.7059,-6.6821
Mn3SiC,76.4144,59.1379,-17.2765
Nd4Al12Ag,10.1437,10.4703,0.3267
Sm4Al12Ag,9.4082,10.7067,1.2984
ThZn2GaCu2,18.329,18.6683,0.3393
Sc2TaTi,67.1767,58.7185,-8.4583
KNiAs2,19.5383,16.3523,-3.186
CuSbPd,19.1032,18.0401,-1.0631
Sm6In2Pb,22.1492,25.417,3.2678
Ta2TlCd,36.7153,39.2172,2.5019
Pr2BiI,16.1107,18.3736,2.2629
NaY2Ga,15.5982,16.0256,0.4274
Ac2Er2Pd15,23.2878,24.9748,1.6869
VCd3Ag,44.4044,37.304,-7.1004
Mn2FeSi,56.1872,45.2404,-10.9468
PrSm3O,17.3865,16.7158,-0.6707
Be2Al2Pb,27.1054,22.5161,-4.5893
Ta2CdW,33.1427,37.9951,4.8524
Ce2HfNi,52.9164,43.7386,-9.1777
Nb2SnP2,54.3789,46.7968,-7.582
Ac2ZrGe3Pt4,60.3744,47.1884,-13.186
ReNi5,24.7137,20.2504,-4.4633
Sm3AlAu4,32.7588,34.4058,1.647
Ac8Pt3Br3N,54.1556,50.1188,-4.0369
MnSi3Ge,32.2786,23.4481,-8.8305
Sm5Sc2,19.3632,21.4635,2.1003
YCoAs,35.255,30.9422,-4.3129
LiAl2Re,14.5558,15.6861,1.1304
Pa4Al12Au,20.4389,22.5047,2.0658
K2CuAg2,16.7267,14.1823,-2.5444
Ta2CoAs,43.45,36.7504,-6.6996
Th4Al12Au,20.0314,21.4818,1.4504
Nd2ScSn2,19.3647,19.9431,0.5784
Tb2SmAu2,29.0887,32.3613,3.2726
ZrCoAs,43.7413,36.6113,-7.13
Co4IrRu,17.0502,17.9877,0.9375
Ta2CoAs,43.4303,36.7504,-6.6799
YBrCl2,42.1794,44.3104,2.1311
Sr2AsRu,18.1658,15.8773,-2.2885
NaCuS2,36.1927,28.1829,-8.0097
ScIBr,8.6926,8.9262,0.2337
SrAs2Ru,19.3518,15.6735,-3.6784
KAc(PuSe2)2,50.1242,46.5792,-3.5449
La2AlAs,40.9366,29.2143,-11.7223
InTc2Pt,67.6909,57.8421,-9.8488
La2AlAs,41.2263,29.2143,-12.012
Zr6Al2FeH3,49.2818,39.448,-9.8338
HfPS2Br,56.1476,44.3807,-11.7669
AcGd2Pt,52.61,48.1496,-4.4604
La3AlAs,43.6612,29.9012,-13.7599
CaTaSi2,17.2511,15.2101,-2.041
Hf2ScPd2,60.4904,44.9551,-15.5353
Ti6Te2Pt,22.1219,20.585,-1.5369
CeErCoHg,14.8916,17.5689,2.6772
YBrCl,55.8119,56.1988,0.3869
Sm4Al12Co,10.817,10.8874,0.0703
FeAu2Se,35.8292,35.0452,-0.784
BiSb3Ru,42.8421,36.524,-6.3181
ReNiOs2,52.0395,45.3935,-6.646
NaFeAu,22.3235,21.4872,-0.8363
GdCu4Pt,23.9316,20.9554,-2.9762
CsRhCl2,16.1853,13.7697,-2.4156
SmAl3AgAu,14.6254,16.1241,1.4987
GaGeOs3,30.5363,32.6132,2.0769
LiAl2In2Pt5,44.9374,30.8834,-14.0539
Re3AgI,37.7057,37.1357,-0.5699
LiAl2Sb,15.7083,13.1448,-2.5636
MnZn2Ir,43.4234,36.7315,-6.6919
Zr(ScTc)2,110.1909,92.6934,-17.4975
CaSbOF2,29.79,23.7227,-6.0673
Ac4CdPb12,53.1016,53.9906,0.889
Ag2AsPt,40.6409,30.7723,-9.8686
Sc2CdIr,20.6052,18.4853,-2.1199
Hf5Fe3,89.6591,65.399,-24.2601
VSbO2F,46.6101,38.1612,-8.4489
Sc(InAg)2,23.3327,20.1754,-3.1573
TaCdIr2,35.8107,39.4964,3.6857
AgAsPt,43.5622,33.5749,-9.9873
NiRh3,38.4343,31.2783,-7.156
Ac4Tl12Cd,51.9175,53.0467,1.1292
Th2ScAu2,39.7174,43.5039,3.7864
Sr2ScAs2,18.7533,14.5902,-4.163
Ce4Bi12Pb,47.2833,48.3784,1.0951
As2PtPb,40.5245,34.8643,-5.6602
NdPRhO,18.7311,16.7285,-2.0026
ZnIr,0.0,2.0401,2.0401
KLiBr,11.9792,9.9581,-2.0211
InCoCu2,25.7546,22.4643,-3.2903
GaPPbS2,42.4366,34.0315,-8.4051
TaCdPb,36.6085,39.3978,2.7893
GdBeCu4,12.1748,12.5238,0.349
TlNiPb2,40.9366,42.5484,1.6118
Mn2SiPt,75.4802,57.2116,-18.2686
CoAsW2,28.3901,29.7698,1.3797
Sc(GaCu)2,20.5764,17.2629,-3.3135
KBaNaAg,17.0087,14.3326,-2.6761
Ca(Pm2Pr)2,14.417,16.8113,2.3943
CaPm5Pr4,11.9243,14.1127,2.1884
Th6CuSe3S2,53.7201,49.7939,-3.9262
Zr2CoAs,57.1581,45.5639,-11.5941
Na2LiAs2Pd5,11.1964,12.207,1.0107
Y4Bi5O,39.7246,40.4036,0.6789
BaTiI2,24.4317,21.2086,-3.223
Sc2AgIr,23.1506,19.3371,-3.8135
Nb4B3C20,62.8138,43.3404,-19.4734
Pu4Ga12Co,22.8492,24.5372,1.688
Tl3CoSb,42.6623,40.0087,-2.6536
Co2RuSe,19.6431,19.884,0.2409
YBi3O,50.4369,48.5379,-1.899
Ca2PmPr,8.3675,10.0645,1.697
Sc(TcNi)2,63.0721,55.8614,-7.2107
SrMn4Co,70.819,57.6221,-13.1969
Na3(SiAu)4,29.1459,25.6772,-3.4687
Th4Ga12Co,21.3427,22.7233,1.3806
Zn2P2Os,8.0087,10.5031,2.4944
BaTm2PdO5,5.9565,8.3013,2.3449
TaZnSeBr2,23.8467,22.3517,-1.495
Nb2Al3Ag,47.6146,40.7916,-6.823
CdGa3Sb,18.3767,16.7016,-1.6751
BeZnTe2,28.8906,24.6939,-4.1967
Sr2CoRe,27.7254,25.4651,-2.2603
Zr2CoAs,57.1241,45.5639,-11.5601
CrMoW,21.2421,25.1668,3.9247
MnPSe,31.3612,25.8426,-5.5186
RbPd2F6,4.7137,3.7465,-0.9672
Sm2Cu2Ir,22.8296,22.1487,-0.6809
SrZrPb2,54.1351,50.1087,-4.0264
Ba3Mn2MoO9,41.6798,37.2383,-4.4415
NaSc2Ni,11.2798,11.4321,0.1522
Zr2CoAs,57.3519,45.5639,-11.788
AcPPdPt6,63.0474,44.983,-18.0644
SrZrPb2,54.0986,50.1087,-3.9899
Al2SiTc,39.5831,33.0791,-6.504
SrZr2Pb,65.8996,56.0832,-9.8164
LiAl2Tl,17.3609,17.1741,-0.1868
AlSiTc2,60.7555,54.5844,-6.1711
Ac2P(PdPt2)2,57.605,45.3074,-12.2976
Tb2ScGa2,9.5909,13.1649,3.574
Al2SiTc,39.604,33.0791,-6.5249
BaZnPtO,32.5697,22.4258,-10.1439
AlSiTc2,60.6282,54.5844,-6.0438
NbRuC2,63.2361,51.794,-11.4422
Li2Sm(AlAu)2,20.8475,20.6641,-0.1834
AcAl2Pt,39.1633,34.1851,-4.9782
YMg9Sc2,4.2057,5.2579,1.0522
Al2SiTc,39.5093,33.0791,-6.4302
Cu2Bi2Sb,29.9327,29.501,-0.4317
Sc2AsAu,29.2766,26.7712,-2.5054
TaCdRe2,63.4696,57.9447,-5.5249
Al3SiTc,33.962,23.1032,-10.8588
Si4P2Se,21.2964,16.2387,-5.0577
CsFe2Re,22.9232,22.526,-0.3972
SrZr2Au,64.6692,55.3176,-9.3516
Ce4In12Co,19.8715,21.0035,1.132
Ce4CoRh12,40.3399,30.4385,-9.9014
SnTe3As,31.7469,29.9348,-1.8121
Al(SiTc)2,51.3713,42.9196,-8.4517
CsRb2C,23.5593,18.0792,-5.4801
CoMoIr2,29.8076,31.0806,1.273
GaTcAs,36.9801,33.9973,-2.9827
Ac2CdPdO5,16.9201,18.3562,1.4361
Na3Ce2TlSe6,37.34,31.2928,-6.0473
Tc(AsI2)2,29.696,28.4547,-1.2413
Rb(ZnPt)2,35.6627,25.2963,-10.3664
CePr2Lu,12.298,15.4936,3.1957
Cr4Ni12Pt,21.9372,20.0704,-1.8668
Cr4Pd12Rh,17.7316,17.695,-0.0365
Cr4Pd12Pt,20.0952,19.0122,-1.0829
NbIN2,44.5366,38.0402,-6.4964
Sc(TiBi)2,18.8513,22.2601,3.4089
TbSmNiAu,25.6809,28.3565,2.6757
Sr(IrOs)2,32.3621,35.0174,2.6553
Th2Ga3CuNi12,13.4642,14.4802,1.016
Ta4MnP,31.9062,32.8035,0.8972
In2SiW,23.6707,24.2699,0.5991
ScCr2Co,15.973,13.8276,-2.1454
Pr6HAu2C,7.0184,7.6508,0.6324
Th4CrGa12,21.527,22.4734,0.9464
SrY5Bi6,34.0742,35.0455,0.9713
CaSc2Be,13.8595,9.9244,-3.9351
Ca2LaY2,21.9606,15.9826,-5.978
YBiO12,6.7563,6.3391,-0.4172
Ho2ScGe2,25.1274,23.4683,-1.6591
KRbTiI6,16.682,16.531,-0.151
Tc2Sb2Te,63.9412,53.7319,-10.2093
Ta6MnSb2,45.5005,44.4182,-1.0823
TaPb2,42.2672,48.6875,6.4203
Sr4PmTh3As8,26.0277,23.7218,-2.3059
Ac3TeRhI,45.3424,45.4529,0.1105
Pr5(Dy6Tm)2,19.4672,20.8112,1.344
Pr12Dy5Th2,11.3721,12.9964,1.6243
SrAuBr3,9.628,11.1233,1.4952
KDy2Sc,18.215,20.3323,2.1173
KRePd,19.1027,22.3723,3.2695
AcAlPtO6,16.194,15.0479,-1.1461
In4CoSb,23.1011,21.5609,-1.5403
Tl(InAu)2,33.9858,35.9014,1.9156
Ba2InSi,8.778,8.481,-0.297
InCo4Ir,14.7686,18.1407,3.372
Li(TiIn)2,6.5566,8.9079,2.3513
GaAu2F,27.7027,28.5467,0.844
AcYAlPt,57.3317,47.317,-10.0146
Ac2CdGa3Pt4,52.2689,41.3568,-10.9121
Mn3CBr,74.5518,58.6923,-15.8595
TeAsAu2,36.9825,37.1347,0.1523
Sr2TiSb,16.8379,16.5332,-0.3046
Ga2FeMoO6,18.8448,15.475,-3.3698
Ag(GeRu)2,17.2972,17.4254,0.1282
YHoP2,17.4832,16.3691,-1.1141
Te2AsAu,35.7058,35.0275,-0.6783
Y7Pb6,31.6445,33.1692,1.5247
TeAs2Au,27.8003,28.3423,0.542
CsCrPt,35.7971,26.46,-9.3371
MnCo2Se,40.8768,34.3578,-6.519
SiIrBr2,21.3876,20.1317,-1.256
Cs2CrMoBr6,18.7405,18.597,-0.1435
LiNd(AlAs)2,24.7665,20.4879,-4.2785
Na2TaPd,23.026,23.8063,0.7803
Pm4AgF12,10.57,10.6223,0.0524
YPb,6.6195,17.7732,11.1537
NaSrPb,24.7056,26.1298,1.4242
Os2PtCl,45.5126,39.7277,-5.7849
Cd2PbW,32.9871,34.7989,1.8118
CoCuHg,25.9043,20.4921,-5.4123
SrYBi2,35.639,35.6821,0.0431
CdTe2Pt,48.2978,39.4857,-8.8121
SrYBi3,40.4802,39.967,-0.5132
CdTe2Pt,48.205,39.4857,-8.7193
NaAcAsO5,4.861,7.6879,2.827
NaAlTcO5,7.5498,6.8203,-0.7295
SmThCuRu,28.868,32.3289,3.4609
Sr2YBi,25.9848,25.6402,-0.3447
Mg2CrAgH8,5.7532,4.9406,-0.8126
Fe4MoF12,8.2998,6.3326,-1.9671
PmNi2Sb,24.9678,22.781,-2.1868
Ac5Si6,36.8493,34.461,-2.3883
Zn3Ir,17.0367,15.9394,-1.0973
NaZnO,25.5653,19.9362,-5.6291
Fe4HgF12,6.3292,4.9685,-1.3608
La2TaAg,43.2959,36.033,-7.2629
La2Tb(CI)2,41.8502,32.2024,-9.6478
Fe4SbF12,9.858,8.0321,-1.8259
HoFe4F12,6.1079,5.6434,-0.4645
Fe4RhF12,7.9698,6.3344,-1.6354
TiAlGe2,17.3542,16.3145,-1.0397
La2TaAg,43.3141,36.033,-7.2811
YCuPb2,44.3814,42.3064,-2.075
TiAl2Ge,16.286,14.5826,-1.7034
SbMoAs,23.6909,22.0937,-1.5971
CaTaP2O,28.9097,25.1534,-3.7563
VIn2Ge,44.8589,38.9626,-5.8963
TaCdTe2,35.2497,34.6425,-0.6072
ErTiAl,13.931,15.4751,1.5441
UGaRu,23.9408,27.6065,3.6656
TaCdTe2,35.2009,34.6425,-0.5583
LiLa2Ru,29.8693,22.907,-6.9623
Ba(BeI)2,24.5514,27.5323,2.9808
Cd4MoF12,10.1281,9.8123,-0.3158
HfTc2Ir,83.9678,73.2657,-10.7021
LuTlAg2,36.581,35.001,-1.58
SrAg2F6,9.7947,7.0686,-2.7261
Ho2PdPbO5,16.2453,12.9622,-3.2831
Fe4PdF12,6.0871,5.5434,-0.5437
Tb6NdTm2Mg,20.7402,23.8421,3.1019
CuSiCl4,3.1741,4.6173,1.4432
InSiOs2,29.8762,31.1268,1.2505
Na2TlIrBr,31.4614,30.1606,-1.3009
Li2Ac(GePt)2,36.8418,31.5088,-5.333
CuSiCl2,8.7898,7.4597,-1.3301
PmCu4F12,7.5269,7.3349,-0.1921
RbGa4F12,8.5457,7.098,-1.4477
InGaRe2,27.7099,30.9527,3.2428
SnIrPtI,39.4273,35.3913,-4.0359
Fe2CoTc,37.0248,31.1962,-5.8286
La(MgH3)2,9.3139,7.0088,-2.3051
TaTeSeN2,26.0695,24.6824,-1.3871
SrCd2Ir,25.4809,24.1062,-1.3747
TaCoBr2,37.5888,28.978,-8.6108
PmSmPtAu,45.6531,40.3745,-5.2786
SmSc(GaAu2)2,28.8915,30.6751,1.7836
La2Ga3Pd4Au,27.0674,23.4673,-3.6001
SnIrPtI,44.3089,35.3913,-8.9176
Mn2Fe2Pb,48.2308,42.158,-6.0727
LaSm6Tm2Mg,22.4036,22.8725,0.469
PmSmIrAu,39.0843,38.9473,-0.137
SmTlCuAu,32.1292,34.5534,2.4243
SiAgMo2,19.5,18.231,-1.269
Y2Cr2Pb,46.0444,38.0357,-8.0087
Cs3CrSb,26.0412,23.6878,-2.3534
AlPtBr2,30.8211,24.4432,-6.3779
Sm2Rh2Au,32.1249,29.6095,-2.5154
CaNi2Se,37.2742,31.9572,-5.317
Mn2ZnIr,66.4521,54.1452,-12.3069
SiAgMo2,19.5324,18.231,-1.3015
SmPaAu2,46.2999,49.2802,2.9803
LaSmAuSe,41.7785,36.1329,-5.6457
Mg2CoRe,17.2006,16.6049,-0.5957
CoTc2Pt,70.3157,58.707,-11.6087
SmPaOsAu,50.39,51.5233,1.1333
AcLaSnPt,55.8468,46.1198,-9.727
Na2MnTc,63.4398,54.128,-9.3118
Sm2PaAu,40.9287,44.3431,3.4143
Cs(TlIn)2,30.8647,32.4876,1.6229
Ag2SnP2,14.6093,13.6431,-0.9662
SmZnBiAu,33.2497,35.4064,2.1567
Y2BAs,49.2845,44.4771,-4.8074
YPb,27.2739,17.7732,-9.5007
MnNb2C,111.514,90.2213,-21.2926
TaAs2PtSe,51.6967,43.7937,-7.903
Ga(FeAs3)4,26.0542,22.3604,-3.6938
CoRe2Tc,44.8334,47.4769,2.6434
Pm6Pr3Sc2,14.3632,15.3837,1.0205
Sr2Zn2Ru,8.9105,10.7154,1.8049
SmPAu,19.1607,23.4302,4.2696
TbNi3Ge2,10.1955,10.186,-0.0095
Fe4Ni12Ir,27.9946,21.7328,-6.2619
CeSmTlAu,36.5741,39.2495,2.6754
SrTe3Ru,30.9263,29.8374,-1.0889
Be2Al2Pb,30.3669,22.5161,-7.8508
TaCr2P,63.1396,48.5134,-14.6262
CeSm4Sb5,33.7836,30.3596,-3.424
BaSiMo2,13.9325,12.2848,-1.6477
AlPdPb2,27.7591,30.5604,2.8013
LaSmZnAu,32.3802,29.9667,-2.4135
BeAl2Pb,26.5289,23.659,-2.8699
LiEuTe,22.8322,23.134,0.3019
BeAl2Re,22.8873,21.1905,-1.6968
Eu3Te,31.1222,31.3433,0.2211
BeAl2Re,22.9056,21.1905,-1.7151
BeAl2Pb,26.6628,23.659,-3.0038
KSrF2,9.353,11.183,1.83
BeAl2Re,22.8904,21.1905,-1.6999
BeAlRe2,32.1989,33.3747,1.1757
LiAs2Ir,15.921,17.7205,1.7995
Al3RePb,22.3012,23.0677,0.7664