Formula,E_hull_DFT (eV/atom),E_hull_ML (eV/atom),Delta (ML - DFT)
Ca2AcRh2,34.1227,29.7826,-4.3402
MnCdAu4,51.202,49.0605,-2.1415
RbRh3Se5,37.7788,30.0037,-7.7752
Cs2CaNiBr6,9.3881,9.5164,0.1283
NaSrSe,25.0184,21.9627,-3.0557
LiInCu,10.7739,10.972,0.1981
Na2SrSe3,30.1345,25.2154,-4.919
Tb3Y(ClO)4,18.3617,20.4925,2.1307
SrAcSm2,32.1354,34.8387,2.7033
FeSi4Sb,24.6585,16.9491,-7.7093
Ca2C,19.838,17.6705,-2.1675
MnCo4Mo,23.8287,22.7112,-1.1175
NdYO3,13.3931,17.1019,3.7088
TaAl,12.8367,19.995,7.1582
AlReAu2,34.4696,37.2321,2.7625
Ce3OsRh,9.7714,12.7424,2.971
ScCoRe2,35.9913,35.9422,-0.049
AlReAu2,34.7607,37.2321,2.4714
AlReAu,30.8546,34.0398,3.1852
SnSbPd2,28.4912,24.6879,-3.8033
Pm3DyS,31.0443,29.6969,-1.3474
AlReAu,30.1564,34.0398,3.8835
NiSF2,20.7177,18.2693,-2.4484
Cs2TlAu4,41.185,42.0805,0.8955
Li2Cr2I7,15.8545,15.656,-0.1984
GaSiN,5.937,3.6674,-2.2696
CdSnPb,30.9192,32.5505,1.6312
ScCoRe2,44.9102,35.9422,-8.968
Al2ReAu,23.2666,25.8232,2.5567
Ho2ThPaC4,53.7465,46.1072,-7.6392
Ca2AcSm2,21.7207,25.0933,3.3726
NpMnCo4,24.4344,25.5317,1.0973
TaSi,7.4178,17.6927,10.2749
Ho4TeC2,38.8997,35.5224,-3.3773
Ac2YTmO6,33.2704,31.1287,-2.1417
SrAl2Pb,18.2979,19.6987,1.4008
YZr2PaO8,26.6894,24.4411,-2.2483
PmScS2O,70.0165,60.8054,-9.2111
Tm2SbRu,29.9502,30.8536,0.9034
Na3ZrAg,42.0124,32.9409,-9.0714
AcY(PO4)2,17.0344,15.7735,-1.2609
RbBaGa4,7.2947,6.8077,-0.487
Mg2Co,9.259,6.8022,-2.4569
SrZr2Ag,60.6817,49.1894,-11.4922
InCuNi2,9.727,12.6548,2.9278
PmBSO2,7.1283,11.7908,4.6625
MnFeI4,29.3959,28.0911,-1.3048
BaPmS2,32.5784,27.0612,-5.5172
MnFeNi4,52.393,44.1015,-8.2914
SrTbAl2,11.5609,13.6312,2.0703
Si(SbTe)2,38.3288,31.4612,-6.8676
NaNiCN2,28.6672,25.9986,-2.6687
UFeCo,29.2326,29.5792,0.3466
NdFeCu,18.2529,18.6435,0.3906
CaTa2Si,28.7037,28.8274,0.1236
SiSbTe2,36.468,30.9897,-5.4783
InFe(CuTe2)2,34.4995,31.3156,-3.1839
LiTcNi,27.271,28.9459,1.675
Si2SbTe,29.3536,23.0689,-6.2847
NaYbN,7.1872,10.6373,3.4501
SiSbTe2,36.1201,30.9897,-5.1304
Co2SbN,63.3602,54.1867,-9.1735
LiCa3Sc,7.6444,6.0737,-1.5707
NaSr2N,13.6317,13.7486,0.1169
Ba2GeIrO6,18.1872,15.6165,-2.5707
YAlWO6,14.8206,15.0823,0.2616
MnGaBr4,25.0402,22.4637,-2.5765
MnGaI4,29.7829,28.1396,-1.6432
NdFeRu,29.545,25.0472,-4.4978
VSiTcIr,69.4524,59.853,-9.5995
Rb2CeSe3,22.8766,19.1664,-3.7103
MnGeSe4,49.9352,40.1127,-9.8226
Zr3CoB,60.4905,48.9155,-11.575
Ca(PrTl)2,16.6977,18.68,1.9823
Ho4Al2C,25.4129,24.897,-0.5159
OsPt2Pb,63.0352,51.5209,-11.5143
SrZrBe,45.1224,33.5474,-11.5749
Pm2SClF2,18.7174,17.219,-1.4984
Nd2SmYO6,14.9276,16.5164,1.5889
Cs3Na12F5,12.2905,8.8802,-3.4103
RbTlIn3,22.354,22.8937,0.5396
MnNbTe4,67.9804,59.0415,-8.9389
SrZr2Be,57.493,44.0652,-13.4279
Ca(AcPb)2,43.1802,46.6535,3.4734
Ca(NdGa)2,9.7948,12.8054,3.0106
Zr2TlGe2,52.9378,45.6961,-7.2418
TlSO3,22.0173,19.9149,-2.1024
Zr4AlCd,69.5128,56.7783,-12.7345
Nd3Y(ClO)4,17.9124,19.9268,2.0143
OsPtRh3,47.8732,36.6398,-11.2334
Sr2YTaO6,26.2752,21.9239,-4.3513
PmEuErAl,21.3175,24.0452,2.7277
AlOsW4,76.0944,67.0017,-9.0927
SbTeRh3,40.3088,29.9168,-10.3919
CaPr2Nd6Sm,13.3337,15.2143,1.8806
V2BiPb2,78.758,68.9477,-9.8103
BaZn4P,8.0505,8.1895,0.139
Y3Er(AgS2)4,39.3897,30.9117,-8.478
MnRhBr,53.7553,42.6226,-11.1326
Lu(GaFe)6,18.4892,13.3549,-5.1343
CuSiIrPt,39.3701,32.8403,-6.5298
BaTl3Rh,29.5985,29.5112,-0.0873
Li3Ga3Ir2,9.3441,11.5707,2.2267
BeAlZn2,16.1287,12.9501,-3.1786
SiIrW4,36.0356,39.4911,3.4555
Si2TcTePb,45.3457,38.4733,-6.8724
MnSnPd4,33.4599,30.2594,-3.2005
Ca3C5,40.9515,28.5176,-12.4339
Te3IrI,40.4464,38.6772,-1.7692
SrBe2Ge,7.0321,5.628,-1.4041
Ba2NaICl,9.834,9.3599,-0.4741
K2Ti8O17,0.0871,1.8827,1.7957
Ho(TiC)2,23.4553,19.7087,-3.7466
Sr2SnGe,11.1901,14.1923,3.0022
Sr2TbP,14.0498,16.0408,1.991
Ca(PuGe)2,24.6984,28.5831,3.8847
Sr2TaAg,32.6004,26.0334,-6.567
SrTa2Ag,38.397,33.2593,-5.1377
PmSm2(TeS)2,37.6175,33.1131,-4.5044
MnPdSe4,51.3302,41.6544,-9.6758
SbPIr2,33.2729,31.6713,-1.6016
Tl4I2Br,36.8853,37.2837,0.3984
SmTm4Pu3Se8,45.1734,41.7723,-3.401
SrSi3Sn,27.0358,17.466,-9.5698
Pm2Zn4GaPt3,35.0007,27.1668,-7.8339
MnRhBr,53.6169,42.6226,-10.9943
Ac2Al4GaPd3,20.5687,21.9175,1.3488
TaBe2N,27.7808,27.2548,-0.526
MnSnI4,34.9006,32.9917,-1.9089
Sr2Si2Sn,32.8635,23.7177,-9.1458
Pm2Zn4Pd3Au,17.4978,19.1408,1.643
SiTc2Te,60.9528,54.4908,-6.462
Zr4MnPd,76.4671,60.3678,-16.0993
NbRu3Rh,58.4234,48.1194,-10.3039
HfCr2Cd,45.5962,35.4532,-10.143
K4Au2I,23.1918,22.6071,-0.5847
SrW2Se,44.0857,35.7581,-8.3275
YTm2(AgS2)3,41.1892,33.0894,-8.0998
ZrAl2Re,35.9495,33.3365,-2.613
ScFe2I,23.1303,22.5387,-0.5915
MnZn4Ga,20.3442,17.9768,-2.3674
SrWSe3,45.666,33.6802,-11.9858
Pm2Er2Se2S3,40.0244,33.1064,-6.918
Ca(SmPd)2,12.4248,16.1813,3.7565
SrTe2Mo,30.3223,28.1697,-2.1526
K2DyNpSe4,37.7932,33.9941,-3.7991
Ca(AcPm)2,36.9434,39.4624,2.519
Pm6RhSe2S3,36.9964,31.4923,-5.5041
Li3Ga3Ru2,3.796,5.0767,1.2807
Bi2PtPb,63.0173,57.0552,-5.9621
Li3Ag3Ge2,14.0769,12.3364,-1.7405
BiPtPb2,62.4638,56.5955,-5.8683
SiWAu4,41.2884,41.9193,0.6309
LaBi3Rh,36.4089,34.6841,-1.7248
NaSr2LaOs,29.1342,25.4216,-3.7126
Ca(PrSb)2,12.6676,10.1626,-2.5051
CsTiAsO5,10.9578,12.2101,1.2523
ZnOs2W,88.7195,75.9829,-12.7366
PPdN,22.5427,17.8259,-4.7168
Th2HgPd2,26.9058,31.0233,4.1175
YIn(BiO3)2,23.541,24.0885,0.5475
Na2Sr2Te,23.1663,21.6239,-1.5424
CeYInSn,30.1003,26.4597,-3.6406
ZnRe3N,85.4927,76.974,-8.5187
AlRe2P,41.5624,39.9129,-1.6496
Zn(IrN2)2,37.9364,32.9853,-4.9511
Th2CoRu,38.8963,43.4504,4.5541
LaRh3I,44.6352,32.2346,-12.4007
AlReP3,41.0456,32.8806,-8.1651
UPd3Rh,34.2993,32.7307,-1.5686
Nd2YErO6,14.9897,16.9022,1.9125
Sr3SnGe,14.0455,15.0904,1.0449
SnGe3Pt,28.8256,23.3042,-5.5213
SrSnOs,14.5685,18.744,4.1755
InSiGe2Se,21.2999,18.3825,-2.9175
La2Sm7Th2,37.5022,35.6131,-1.8892
PmSbRhS,36.5433,29.483,-7.0603
Pr8Nd2In3,5.5126,6.6661,1.1535
Li3Ho2Tl3,23.2047,24.8553,1.6505
BSb3P,29.2279,22.9487,-6.2792
Sc4SiSbC,23.0066,17.7207,-5.286
AgPRu4,18.2938,18.7615,0.4677
TlAsW2,36.1452,38.2749,2.1297
Sr2LaCl7,1.5814,2.8232,1.2419
Sn2As2Pt,25.3275,20.695,-4.6325
Si2GeIr,20.7924,19.4693,-1.3231
Sb2AsPd4,20.4644,18.5587,-1.9057
Tl2AsW,39.4199,41.3647,1.9448
LiSi2IrF,27.2626,24.3823,-2.8802
Pr8Nd3In2,5.8949,7.2441,1.3491
La3Pr2PuSe6,40.3534,31.67,-8.6834
ErNpSc,27.2856,33.2813,5.9958
Sr2SnAs2,16.633,12.8246,-3.8084
Sc2SbCSe,35.6294,27.1724,-8.4571
Si2TeAs,31.2973,25.9457,-5.3516
NaSr5In4,16.7811,17.4528,0.6717
NaPmY,17.7504,18.3022,0.5518
Ta2PdW,23.3869,30.4776,7.0907
Th7(MnTl)2,69.3596,68.681,-0.6786
ZrAl6,17.5033,15.1888,-2.3144
TbYNb14,126.5792,102.5857,-23.9935
AlRuAu4,35.2068,37.228,2.0212
BaCd2GeO4,13.8295,13.0519,-0.7776
MnCuNi3,46.4906,41.2926,-5.1979
LaEr2Hf,63.652,51.1616,-12.4904
CaPr6NdSm2,2.3238,3.1862,0.8623
CaTb2Pr6Nd,2.6793,3.8399,1.1606
SiTe2As,38.1623,34.0102,-4.152
Al2SbC,29.1526,22.682,-6.4705
Zr2AlSi,63.4666,51.6317,-11.8349
Ac4Pm2Pr3,32.6792,35.9115,3.2323
NaGdZnSn,20.2542,20.6697,0.4155
CaZrAl2,27.5904,23.516,-4.0744
YZrSbH,32.1568,29.1544,-3.0024
LiCaHf2Ta,66.838,50.7499,-16.0882
CeY(NiH)4,24.4557,21.7203,-2.7353
Sc2NiSbC,27.5909,21.5997,-5.9912
ZnOs2W,96.4495,75.9829,-20.4666
PmYH6,4.8155,6.3757,1.5602
CaZr2Si,53.3351,43.1778,-10.1574
YSnH2Rh,14.7105,9.1439,-5.5665
ZnOs2W,96.5718,75.9829,-20.5889
ScSb3C,43.0097,32.0879,-10.9218
BaSbF,13.647,13.3864,-0.2606
SiTe2As,37.7881,34.0102,-3.7779
In(SnPb)2,33.4402,34.6895,1.2493
AcPm4Pr,26.508,29.586,3.078
Y10Tl6H,25.7069,26.97,1.2631
AlRe4Ru,30.2523,33.7631,3.5108
In3Sn2Pb3,32.3652,33.3676,1.0024
Sr3BSb,17.7505,16.4726,-1.2779
Th(WN3)2,24.616,23.0482,-1.5678
RePRu4,32.2472,30.3342,-1.913
Si3TeAs,29.085,22.4239,-6.6611
MnBeBi2,48.1694,45.6037,-2.5657
MnBe2Bi,34.595,31.899,-2.696
Ca2Zr,32.5562,30.0075,-2.5487
CeNi2Sb,27.5029,24.3863,-3.1166
SrZr2Ta,64.1975,51.0551,-13.1424
Zr6Nb5,118.0353,96.5834,-21.4519
AlSb,16.5751,16.7222,0.1471
Hf4ZrNb15,139.9236,109.5787,-30.3448
BaZrSe,48.357,38.5796,-9.7774
La3Y7Er,25.7503,21.4211,-4.3292
PrTlSb2,33.4099,29.9327,-3.4772
Sr2AgPb2,29.6273,30.4317,0.8044
MnAg2Ru,45.9484,38.7262,-7.2223
GaBiPb2O5,19.9256,21.1705,1.2449
CsTm(CO3)2,8.5328,6.7441,-1.7887
Ac3Ce,50.3263,54.2607,3.9344
KSc2Mn,30.8303,27.2137,-3.6165
NaTlS2,36.2667,30.2796,-5.9871
PmRuRhPb,49.3071,43.0418,-6.2653
AcCe,45.484,48.9382,3.4542
Nd3YCo2,23.5112,23.7372,0.226
Ce2PmPt2,43.234,34.724,-8.5101
SrAc2Ce,42.074,44.8236,2.7495
CsSn(CO3)2,27.9479,20.7667,-7.1813
Th3In4,34.4065,37.9919,3.5854
TaPd3O,30.6898,29.4376,-1.2522
MnCrNi2N,56.3911,47.81,-8.5811
Sc6Sb2C,14.7612,12.2127,-2.5485
Na6Au5,34.6632,32.1599,-2.5033
Pt(PbW)2,48.6523,46.9654,-1.6869
Si2SeO,14.403,9.4848,-4.9183
In5Te,23.5161,24.287,0.771
La3PmSe4,44.6181,37.1875,-7.4306
Rb5Na6,14.3428,11.2204,-3.1223
Y2PuCo3,37.0636,33.4392,-3.6243
Zr2Ta3Nb2,84.3636,74.6252,-9.7385
FeNi2GeN,30.0073,21.5752,-8.4321
PaSb3,44.4184,39.2212,-5.1972
Hf(NiPd)2,31.4162,26.6369,-4.7793
SrAg2Os,30.1022,28.3139,-1.7883
Ta2SbIr,40.3571,41.9305,1.5734
Y2Ga3Co,22.4799,20.1141,-2.3658
NiSbBr2,23.0432,23.3502,0.307
YBPtCl2,60.144,46.2899,-13.854
Cd4PRu,16.7068,18.0616,1.3548
Ce2SmPt2,43.2666,34.5366,-8.73
NaBiPS2,40.2775,36.1556,-4.1219
BaLiSi4,13.558,9.059,-4.499
Cs3Pm2YTe6,31.0074,30.7511,-0.2563
Ca4MgN,11.4856,10.6564,-0.8292
TaSbIr2,42.2451,43.0926,0.8474
Co2PAu,24.5903,21.9712,-2.619
NaPIr2S,41.9126,36.911,-5.0016
Pr3Pu2Se5,35.3398,33.4565,-1.8834
NaCrTe3,31.974,29.8894,-2.0846
AlSb4Ir,38.6247,32.142,-6.4827
TeO,23.0067,20.4533,-2.5535
Sr2TaTl,37.1374,32.4441,-4.6933
Cr3BSb,14.6581,12.6876,-1.9706
LiFeTe,36.7247,30.7043,-6.0204
FeTe,21.4663,21.788,0.3217
PrPu3Se4,48.907,48.2763,-0.6307
CaAcTb2,30.7926,33.6572,2.8646
LiFe2Te,27.6953,24.3432,-3.3521
Eu3ReO8,5.644,7.8873,2.2433
CaAcTb,32.1135,34.8037,2.6901
CsSrBr3,3.5674,5.7535,2.1861
Fe3Te4,24.0953,24.14,0.0446
TeO3,7.1861,5.9834,-1.2028
Li3Te2,13.0237,12.943,-0.0807
Rb2YOsF6,11.3014,10.0,-1.3014
BeTlPt4,68.3831,49.0092,-19.3739
TeP,19.1837,19.0116,-0.1721
TeP3,8.7821,9.7158,0.9337
AlSb5,38.3463,29.7644,-8.5819
NaCdHg4,6.9845,6.4602,-0.5243
TeP,19.3339,19.0116,-0.3223
NiP2Se,20.2659,17.6267,-2.6392
Th3Os2,46.9054,54.639,7.7336
NdZr6Nb5,110.3645,89.1329,-21.2316
NaCeAu4,39.4261,40.0803,0.6542
TeP5,10.28,11.7197,1.4397
Na2Ir,31.2095,29.3975,-1.812
AsRu3Se,34.2042,33.2861,-0.9181
TaSbIr2,42.0741,43.0926,1.0185
SrGa3Fe2,13.4546,10.9201,-2.5344
Rb2Ta2W,27.1673,26.5431,-0.6241
SrCaBeN2,17.0323,16.5115,-0.5208
ZrNb15,138.9049,111.7655,-27.1394
Zr4ReCl,73.7254,59.8299,-13.8955
GeIrN,11.2202,15.8288,4.6086
Ge2PtN,21.3701,20.252,-1.1182
Sn2AsI,18.801,20.0429,1.2419
ErCd3Ag4,26.3999,23.9874,-2.4125
Mn7Be,87.0655,70.0152,-17.0503
ZrNb15,138.8959,111.7655,-27.1304
SrLi2Tc,24.5272,22.7222,-1.805
MnTc3N,78.0628,65.2644,-12.7984
HgTeI2,22.3206,21.7523,-0.5683
AsRuSe2,45.6083,41.2128,-4.3955
PRu3Br,17.4491,16.7455,-0.7035
BePdPbAu,32.1335,32.6687,0.5352
Sb2TeP,30.1891,25.7512,-4.4378
NaSrInSb,25.2881,22.7121,-2.576
Mn2NbCr,87.3522,71.8885,-15.4637
AsPd2N,21.6253,20.1689,-1.4564
BePdN3,31.1081,24.7636,-6.3445
SrPtSe,45.1718,34.0932,-11.0786
NaBeMo2Au,27.03,22.6544,-4.3756
BaCrOs2,28.8811,29.5169,0.6359
AlSiSeN2,22.4124,18.58,-3.8324
PRu2Br,17.0303,17.1951,0.1648
ScMn2CdRh,55.4529,45.132,-10.3209
AgSnPb6,46.0827,46.4189,0.3362
Al3ZnTc,25.8423,20.7181,-5.1242
AuC3F,50.6546,37.7748,-12.8798
Er4InPbO,24.8907,26.18,1.2893
PtRhIN2,35.0833,27.8735,-7.2097
Au3C5,57.0521,44.8942,-12.1579
Y2GaCu3,27.3673,22.3375,-5.0298
Sm2Sc(SeS)2,41.6737,35.9005,-5.7733
K2MnMo,36.5199,30.7824,-5.7375
Sr2GeW,28.445,21.9187,-6.5263
SmYCBr,36.0581,31.7662,-4.2919
NdScAgRh,27.0805,24.299,-2.7815
Nd4NO,9.3601,12.7719,3.4118
MgRhW4,34.6522,36.0334,1.3812
Zr4TcCl,82.455,65.7561,-16.6988
SrCeTl2,34.72,36.6619,1.942
Y2CI,30.4171,25.8015,-4.6156
BaZrOs2,38.8099,36.6929,-2.117
ZnCoMo,13.0507,10.9206,-2.1301
SrTa2Cr,58.4639,43.4769,-14.987
NaSr2GeF,18.9501,18.4781,-0.472
IrPtIN2,34.3226,30.4545,-3.8681
Ca2Fe,24.5272,18.4977,-6.0295
La2(PmMg)3,23.1267,20.1218,-3.0049
Cs4Ba3TaO8,11.9612,10.3283,-1.6329
Cu3AuN,13.871,15.3413,1.4702
ErZn2GaNi2,10.8023,12.5218,1.7196
Sc4AlBr,7.1787,7.6748,0.4962
BaBr2Cl,2.1571,4.3622,2.2051
Au3C2,49.9597,44.0599,-5.8998
BeInTc,38.3062,35.5269,-2.7793
NaInPS2,33.8123,29.6901,-4.1222
SrLaZr,54.7813,43.8026,-10.9787
Zr3ZnPb,71.3342,59.1028,-12.2314
NaCdGeBi,26.942,26.9203,-0.0217
TiCd2Pb,21.7105,24.3772,2.6667
BaZrOs2,45.9535,36.6929,-9.2606
In2PtSe2,40.7993,32.3409,-8.4584
AcYSe3,36.4347,36.7794,0.3447
Fe2Si,-0.0,2.0243,2.0243
GaReN3,61.3017,57.5442,-3.7575
CdGeRu2,15.2228,18.5364,3.3136
TlAsRu2,26.1036,26.5718,0.4681
TlAs2P,23.663,22.4015,-1.2615
TlAsP2,26.3997,24.2697,-2.13
LiAc2(H4Pd)3,10.1371,10.9762,0.8391
AlCuTe2,24.2966,22.2177,-2.0789
TbSnPt,44.6258,37.0137,-7.6121
NaSb3Os,40.6642,33.7369,-6.9273
TcIBr2N,30.087,26.2744,-3.8127
Y3CuPd2,27.2302,22.2472,-4.983
TaP2N,21.904,19.2692,-2.6347
Y3CuHg2,28.478,22.754,-5.724
AlCuTe,19.0153,18.2315,-0.7838
Zn2TcPb,40.8011,38.3679,-2.4332
NdZr2Nb5,116.5007,94.6175,-21.8831
Dy(Y2Er)3,14.4396,17.4042,2.9645
Ce(DyY3)2,12.4304,16.1098,3.6794
Y2TaF,33.6069,29.2597,-4.3472
YNbIrRu,58.0113,50.6489,-7.3624
ScBe17Pd,6.3002,5.08,-1.2201
PrEuSe,22.745,21.1454,-1.5996
CaMnBe,45.4624,34.4296,-11.0327
Pm3Nd2Ir3,24.5321,27.7072,3.1751
MnAlSe3,33.0283,27.0379,-5.9904
CePu7Se8,55.6124,52.2953,-3.3171
Mn2NiIr2,70.6863,64.3913,-6.295
CaMgZn2,7.7965,6.9515,-0.845
PrTmS2O,25.8662,21.0437,-4.8225
Zn(CoOs)2,19.3791,20.5591,1.18
GeOsN2,27.2364,24.7084,-2.528
BeCrN2,25.1043,21.7261,-3.3782
Ni2PdWN,24.3058,20.9843,-3.3215
CrPt4Cl,65.9409,45.593,-20.348
Cs2TmFeO4,10.2608,12.1032,1.8424
SiRuPb4,43.4584,41.7888,-1.6696
NdEuCuS3,15.9841,12.8832,-3.1009
Li2ScRhW,20.2121,17.5817,-2.6304
ScNiP2Rh,35.7539,26.8911,-8.8628
SrCrW,33.1529,23.2223,-9.9306
LiSiAs4,16.4793,14.8846,-1.5948
Mn2CrTcN,67.0188,55.1962,-11.8226
ErScBr,15.9363,16.9807,1.0444
MnCr2FeN,39.6301,32.3026,-7.3275
FeSi2NiN,25.6729,17.0062,-8.6666
YTaBe17,6.8681,6.2003,-0.6679
Be17ZnOs,3.7953,4.3392,0.5438
OsSe2IN,51.3386,42.0891,-9.2495
La(NbBi)2,82.4658,70.541,-11.9248
KNa2PSe4,28.5161,22.6351,-5.881
Li3SmAl3,7.7981,6.8228,-0.9753
Tc3AsRu,64.2696,54.4831,-9.7865
Pr3MoS6,26.1561,18.5348,-7.6213
GeAu3N,31.2248,32.6036,1.3788
BaLaCd17,19.7022,19.2626,-0.4396
Ac3H12Au5,10.6867,12.0438,1.3571
BaUSe3,22.321,23.8967,1.5757
YCoIN2,75.3982,63.4045,-11.9937
Be17ZnRe,4.8251,4.7049,-0.1203
PaBe17Zn,6.5937,6.1458,-0.4478
NpU2(TeSe)3,52.2935,48.7803,-3.5132
BaReAs2,26.5053,24.7328,-1.7725
Np2Te3F2,32.6679,30.4859,-2.182
CsTl(ZnCl3)2,7.2907,8.5228,1.2321
Pm2Y3Sc4,10.8927,10.4956,-0.3971
Ta4SiRh,35.5836,34.5506,-1.033
CaMnBe,45.2226,34.4296,-10.793
NaSn(PbBr4)2,24.2966,22.1847,-2.112
SiSe2SN,34.7959,25.6622,-9.1337
Ac3Sm5,39.8741,42.8386,2.9645
Th2Sn3Ru,30.2282,32.0462,1.818
RePd3I,24.3876,25.464,1.0764
GaFe8,3.8812,5.0224,1.1411
BaSrN4,2.2908,3.0328,0.742
TcWIN2,34.053,30.7122,-3.3407
CdHgRu3,15.5831,17.0675,1.4845
LiZr,36.3416,29.5271,-6.8145
Y6Er2In,13.2025,15.1086,1.906
La4GeN,29.3383,18.3149,-11.0234
Y6InHg2,23.1613,18.7343,-4.427
Sc4AlSb,13.0862,12.1079,-0.9783
WAuN2,14.2173,18.9515,4.7342
KSeS3,42.2671,31.1137,-11.1534
ScCu2Pb,29.3333,27.2787,-2.0546
InGa(AgTe2)2,32.1479,29.6982,-2.4497
Cd5Re,42.439,37.7963,-4.6427
SmYGa,16.1511,18.6063,2.4552
K4CeY3Se8,29.5163,24.8555,-4.6608
BeCu2P,9.0455,8.0227,-1.0228
LaCeSe2,41.3517,32.8706,-8.4811
BeCuP,8.8558,8.4311,-0.4247
ReAuN2,78.3931,75.7902,-2.6029
YSn2Bi,37.8948,33.7576,-4.1372
Be3GaP,10.0392,8.8654,-1.1738
ErBe17Co,3.2174,4.0545,0.8371
ReTc2RhN,105.6166,93.2399,-12.3767
Lu3In3Ni2,21.0912,23.1489,2.0578
Sr3BeMo,16.2649,13.5486,-2.7163
LiSiCl4,9.3669,8.6115,-0.7554
AlSb2PN,32.8123,25.8065,-7.0058
Ca2Co2Ag,12.8344,10.7077,-2.1268
KSb2Pb,38.6113,34.8045,-3.8068
TmBe17Cu,8.3911,6.5853,-1.8058
SrPm2Rh,27.6873,27.0298,-0.6575
Rb2Ce2SbSe6,33.9148,28.6426,-5.2722
Mg2F,6.0269,7.5742,1.5473
TbSm(PuSe2)2,38.6951,36.4555,-2.2396
BeTcRh,47.6059,40.8679,-6.738
AlGaSbN2,15.9945,11.3701,-4.6244
MgF,0.163,1.2136,1.0505
Pr3Au5S12,30.8855,22.5933,-8.2923
V2P2H5,29.4783,23.2954,-6.183
BeTcRh2,48.1078,38.4984,-9.6094
Sr2CdSn2,19.3341,18.5508,-0.7833
Pm2YHg,25.116,24.2312,-0.8848
Tb3Tm(PuSe3)2,43.618,39.906,-3.712
BeTcRh2,48.2623,38.4984,-9.7639
LaY3Ga2,13.1866,11.8927,-1.294
BeWN2,23.6184,24.2339,0.6155
Tl2TeI,41.3996,41.174,-0.2255
CuNi3N,8.0612,7.5428,-0.5184
CrOsRh2,37.205,32.005,-5.2
TiGePt,34.996,27.0207,-7.9753
NdY3Ga2,8.6972,10.6771,1.9799
TaSb2Ir,42.404,40.1905,-2.2136
IrI,13.5695,17.9008,4.3313
Y3Ga2Sn,4.1097,4.8784,0.7687
AlIn2Te,21.2109,21.3807,0.1699
CaAlSe2,41.9018,34.6428,-7.259
Sr2ScTl,18.2152,21.1032,2.888
SrScBr,12.582,12.8095,0.2275
Nd3YGa2,12.5455,14.9549,2.4094
ZrF,33.1031,22.2197,-10.8834
SrSc2Br,10.6454,12.0631,1.4177
NbAgN2,45.1675,38.1918,-6.9758
ScCrBiS2,44.1789,38.6364,-5.5424
K2TeBr2,14.1324,13.6939,-0.4385
SrScBr2,12.4103,11.3336,-1.0767
TlAgOs2,42.3956,43.4255,1.0299
AlRe2W,30.3906,35.6047,5.2141
Ge2As2Pb,14.2354,16.4088,2.1734
SiRhW4,36.942,37.2972,0.3552
AlGeW,43.5014,35.1295,-8.372
Tb3YGa2,13.5306,16.1108,2.5802
FeSiTcIr,38.4996,35.5652,-2.9344
Be2NbNi2,24.4712,23.3712,-1.1
ScBe2CrS,23.3175,19.9999,-3.3176
AlHgPb2,27.196,28.7735,1.5775
NaLa(YS2)4,39.9052,30.3914,-9.5138
Ta2OsI2,27.6837,30.0312,2.3475
ZrBePt4,75.7012,53.3312,-22.37
Ba2GaGe4Au3,19.1645,19.6124,0.4479
Sc2MnTc,88.4876,76.0949,-12.3927
CsCeAgSe3,31.6085,28.8998,-2.7087
ScC,10.7191,7.5141,-3.2051
MgRu4W,37.7008,29.9528,-7.748
Sc2MnTc,88.122,76.0949,-12.0272
Na2TiBr,19.5123,17.7159,-1.7964
Na3AuSe4,38.6542,31.9755,-6.6788
Ba2IrPb,24.0508,25.438,1.3872
FeNiOs,45.6577,38.7634,-6.8942
Nd3YGe2,18.6501,19.3962,0.7461
Pm2Nd3YSe6,33.7283,29.9528,-3.7755
Tm2Ge4RuPt3,37.4869,29.7852,-7.7017
CrRu2N,26.7322,25.3516,-1.3806
K(YSe)2,20.9349,18.309,-2.6259
Sr2LiRu,11.3663,13.8219,2.4557
Nd2IrPt3,59.2849,46.7671,-12.5178
Pm3Nd3YSe8,34.6479,30.7901,-3.8578
Rb2NbC,48.3029,39.7629,-8.5399
InFeAs,36.4961,31.4867,-5.0093
CaScSi2,27.2958,21.7249,-5.5709
ZnPAu4,33.7993,35.104,1.3047
Y2Ge3Pd,18.7931,16.5979,-2.1953
PaCuO4,3.0711,6.5335,3.4624
Nd2SmEr7,28.1487,30.4738,2.325
TbDy2Tm,28.022,31.3835,3.3615
Ga2SnHg2,5.4402,6.9234,1.4832
Nd(Y3Tm)2,13.0935,16.0186,2.9251
Co2CuPt2,52.3688,37.6582,-14.7106
Mn2CrHg,46.8114,37.6685,-9.1428
YGe3Os2,14.671,17.7812,3.1102
YTc2Ge3,53.5582,47.9154,-5.6428
Pr3YPb2S,23.5429,21.8702,-1.6727
Ca4LaMo,15.3544,13.3937,-1.9607
TbTm2(PuSe2)3,47.7973,45.0745,-2.7228
Sc4AlSe,12.5222,11.9607,-0.5615
Sr2RuSe,19.2654,18.9774,-0.2879
LiTl4Si,40.361,39.8116,-0.5494
Al3Ge3Pb,26.3956,22.1982,-4.1974
AlIn2Pb,23.9599,25.6026,1.6427
TbNd4Pb15,45.3414,46.4874,1.146
CuP2Ir,25.6054,22.2534,-3.352
BaGe2PbO,21.1755,20.1227,-1.0529
Mn2AlCr,52.9736,43.785,-9.1886
Tb2Tm2Mg7,12.109,13.4224,1.3134
ZrGa3Ru,28.9558,25.1592,-3.7966
Ta2SbIr,40.4127,41.9305,1.5178
CdInGa,13.6807,15.7463,2.0656
LiMnCd,40.1954,34.1199,-6.0754
Ca2YPuO6,32.3555,30.0644,-2.2912
Na(InPb2)4,40.6132,40.5746,-0.0386
Ta2SbIr,40.4867,41.9305,1.4437
NdPu4Au5,54.4656,56.758,2.2924
IBr2N,14.6205,14.1439,-0.4766
P2AuN,25.2582,22.4709,-2.7873
VNi,47.2679,37.6874,-9.5805
AlRe2Rh,25.2853,28.7133,3.428
Ta2CdI,24.2623,27.7668,3.5045
Pm2NdSmTl4,33.4767,36.0597,2.583
Al2ReRh,23.368,22.5251,-0.8429
AcLa4Pm7,37.3043,32.6629,-4.6414
La2Ta,40.4598,36.3485,-4.1114
K4Rb3Na2,10.3992,8.3469,-2.0523
Na7(CdIn)2,22.6876,19.4704,-3.2172
La4YEr15,33.0851,30.5104,-2.5747
TbNd(SmHg2)2,9.0594,11.3668,2.3074
SrGeS3,23.6579,18.329,-5.3289
TbPm2NdHg4,8.9917,11.2996,2.3079
NdZrAs2Rh5,42.5948,32.8107,-9.7841
Ba2YCu3SO6,13.7748,12.1558,-1.619
Nb3CuI,92.8411,76.0495,-16.7916
Cs2CdPt2,49.1378,38.2804,-10.8574
GaS3Br,37.8417,28.8059,-9.0358
PrGaSn2,13.6458,14.3064,0.6606
La4SiRu,42.5041,28.11,-14.3941
Ba2RePb,35.6467,32.5144,-3.1323
Rb2Mn2Br7,20.7415,18.1301,-2.6113
YScPBr2,26.8496,22.4418,-4.4079
Na4SnPb,26.1969,23.5593,-2.6376
GaIrS3,38.686,31.3413,-7.3447
EuThPb,49.0337,51.6144,2.5807
Cd2SbSe,32.9458,28.203,-4.7427
Rb2Mn2I7,28.7305,26.1149,-2.6156
Zn4SiW,14.8508,15.9397,1.089
ZnMoCl4,13.2666,8.7472,-4.5194
BeC,12.3629,12.5458,0.1829
Mn2Cu2Br7,28.4566,24.0736,-4.383
Th4FeTe2P,51.0898,51.1274,0.0376
HoBiS3,44.1297,37.1871,-6.9426
La(Y2Er)4,21.7257,21.4563,-0.2694
GaPbAu,36.0589,37.7172,1.6582
Mn2Ni2Ir7,65.4377,62.106,-3.3317
CaAlSn,2.234,6.6407,4.4067
TmTlV2O8,27.2516,23.6705,-3.581
ZrCdMo2,37.1259,34.9034,-2.2224
ZrCdMo,44.4222,40.5757,-3.8466