Formula,E_hull_DFT (eV/atom),E_hull_ML (eV/atom),Delta (ML - DFT)
Ca(Sm3Ho)2,23.5883,26.3945,2.8062
RhSe2I,41.9614,34.1927,-7.7688
Y2Tl3SbTe6,39.0326,37.9196,-1.113
CuTcRh,50.0596,41.5359,-8.5237
Tl2TeW,46.6186,46.8654,0.2468
YHoTl,25.9672,29.5872,3.62
Ca(YBi2)2,38.5803,37.9115,-0.6688
TaRuSe,33.731,33.7621,0.0311
Ta2NbAsN,46.4616,42.8906,-3.5709
Ta2RuSe,34.5102,37.9931,3.4829
ScBe3,0.0,0.0,0.0
Ce2LuSc,22.2084,25.0972,2.8888
NdTmRu,23.5951,27.1284,3.5333
Ti5Cu2Rh,3.8004,5.4293,1.6288
Ti2Cu2Rh,14.2473,13.9782,-0.2691
Sr2CaIn6,17.1965,17.4544,0.2579
Nd2YTmBi5,40.6133,41.9095,1.2962
Hf(CrRu)2,29.2905,24.7111,-4.5794
Sr2AuCl6,13.3705,14.4267,1.0562
NdY3(TmBi3)2,37.0724,38.9052,1.8328
PmYIn4,20.8578,21.2489,0.3912
Ac2HoRh2,44.3752,41.2896,-3.0857
TaRu2Se,21.7381,25.2117,3.4737
Cs3GaBr4,11.4679,12.293,0.825
CeY3(Ho3Er)2,24.6224,26.2601,1.6377
YMgTe2,21.0272,21.9067,0.8796
TaRuSe2,37.3109,35.7282,-1.5827
Sr2Ac2Pt2Rh,54.1318,45.1534,-8.9784
KZr2As,55.2529,46.8048,-8.4481
SrPbI2,27.5631,28.6779,1.1148
Ac(YEr)2,25.274,29.0495,3.7755
Mg3Al7Cu2,6.7164,5.8849,-0.8315
BeI3,24.6685,25.9901,1.3217
PmYZn2,15.1483,15.7193,0.571
MoPb2Br,40.905,38.6529,-2.2522
ErBeGa,12.3097,15.2581,2.9484
Tc2AuBr,61.985,53.9702,-8.0148
Ac4Y3ScSe8,41.3788,37.7589,-3.6198
MoPb2Br,41.1032,38.6529,-2.4503
Zr2BeP,50.2005,42.7388,-7.4617
Co2IrPb,29.7412,31.0084,1.2672
SrZrOs3,50.3543,48.3488,-2.0054
NaY(C2O5)2,15.6289,11.7062,-3.9228
CaRhI,20.9767,18.5165,-2.4602
Al2TlMo,23.3173,22.1184,-1.1989
CaRhI,20.5013,18.5165,-1.9848
Y2Al9Si27(N15O)3,11.6794,8.9635,-2.7159
Ir(PtRh)2,64.1163,48.7409,-15.3754
Np(InRh)2,41.2779,36.8861,-4.3918
TcAuBr2,41.5747,37.9733,-3.6014
Tb2MnCo4B2Ir,15.0479,16.3916,1.3437
AcPr6,5.2516,7.374,2.1224
SrGaIr,12.3275,13.2162,0.8887
TcAuBr2,41.5229,37.9733,-3.5496
ReMo,22.6602,33.9615,11.3012
SrZrOs2,49.4068,48.0139,-1.3929
Sr2ZrOs,42.9191,39.971,-2.948
CsRb6,2.3544,2.2292,-0.1252
YTe2Br,26.6437,26.5139,-0.1298
RbPtSe,41.941,32.5191,-9.4219
RhPb3Br,50.5882,44.3477,-6.2406
TlCuSb2,37.0721,32.9128,-4.1594
Ac2NdYAs4,24.4939,27.0481,2.5542
As2PPt,37.3335,29.1497,-8.1838
Tl2CuSb,38.4506,36.7381,-1.7125
NdYZnAg,21.0734,19.4268,-1.6467
ZnCr2CdRe,42.1807,31.6823,-10.4984
Ac4RuPtSe2,58.1426,52.1222,-6.0205
TaRuSe6,42.5355,36.4366,-6.0988
KRbZn2Pt,23.6338,17.9798,-5.654
ZrH2,32.5026,28.0733,-4.4294
Ca2PmNd6,20.4864,22.6561,2.1697
ZnFeOs2,32.453,31.697,-0.756
Cs3Sm(YTe3)2,30.119,30.2263,0.1073
SbPPb,29.4517,27.653,-1.7988
Zn2In2Rh3,28.5614,23.2158,-5.3455
FeTcNi2,48.4615,39.4946,-8.9669
ZnFeOs3,35.7629,34.2578,-1.505
La4YTl,40.2353,30.4587,-9.7766
Na2SmPaO5,14.0238,13.8728,-0.1509
Li2ScAg,10.0169,8.5617,-1.4552
Ca2PrNd6,17.4686,19.081,1.6124
Ir2PtRh2,55.2674,45.9723,-9.2952
AcBiAsPt,54.1315,49.0582,-5.0734
Ti5Tc4Pt,47.9635,40.9865,-6.977
Tm4TlHg2Rh,27.1952,26.9894,-0.2058
AgHgI,17.9474,15.5805,-2.3669
AcPrPt,31.9188,29.1301,-2.7887
CuTeSe2,33.0586,29.1677,-3.8909
Ca(PmAg3)2,26.6989,22.328,-4.371
Sr2Ca6Pm,10.7173,10.8429,0.1256
NiIr3,34.2643,38.1941,3.9299
Ca(CeAg3)2,26.8047,22.4134,-4.3912
SnRhAu2N,40.6116,35.8263,-4.7853
Ca(ThAg3)2,35.9679,31.8482,-4.1197
RbIn6,14.7237,15.8763,1.1525
AlPdW3,29.0145,32.3704,3.3559
RbLi2HgO,15.6156,13.357,-2.2586
InFe2Os,28.0029,23.2266,-4.7763
TcPb3I,54.7332,52.0743,-2.6589
ThRh6,28.1249,19.6569,-8.4681
MoPb2Br,37.0911,38.6529,1.5618
PmRh6,23.8704,14.9061,-8.9643
PrRh6,19.7252,10.7538,-8.9714
NdRh6,23.888,14.9245,-8.9635
SmRh6,23.8925,14.9281,-8.9644
CdSb2C,43.8117,34.0259,-9.7858
Ac2SiBiPt6,66.4177,51.0482,-15.3696
ZrH2,32.2679,28.0733,-4.1946
LiRh2W,34.4628,29.516,-4.9468
Ta3GeC,25.9551,27.6767,1.7216
Ge2RuPb,22.29,24.6604,2.3704
LiRhW2,31.8619,31.5461,-0.3158
TaGeC3,47.8247,36.1267,-11.698
La2Co2Ge2H,18.5585,15.5754,-2.9832
Ca(ThZn3)2,20.7337,21.8174,1.0838
SbAs2Pt,38.542,31.7908,-6.7512
Na2TiVO5,17.4004,15.055,-2.3453
SbAsPt,31.4503,22.8733,-8.577
Ca2La6Sm,38.5306,28.6011,-9.9295
AcSbPt4,71.3958,53.5377,-17.8581
CaTi2S5,29.8483,21.0031,-8.8452
Y2TeBr,19.1846,20.2657,1.0811
InRe2Au,37.6035,40.5193,2.9158
YTe2Br,26.6899,26.5139,-0.1759
CrCuN2O,11.82,10.0098,-1.8102
Ce6Cd2Pb,26.604,28.7481,2.1441
MnInIr,33.5968,34.7898,1.193
La2CuW,37.8272,32.4283,-5.3989
BaVRu3,36.2074,31.9374,-4.27
YTeBr2,18.8196,19.048,0.2284
Mg2ZnHPt,22.8316,16.9549,-5.8767
Ac2LaRh2,48.9602,41.5994,-7.3607
YTeBr2,18.8035,19.048,0.2445
Ac2MnSb4Pt3,66.8699,52.4843,-14.3857
TaRuSe,33.6253,33.7621,0.1368
YTeBr,21.2108,23.6788,2.468
Nd2SmAg2,23.2621,22.9284,-0.3336
YNi(H2Os)3,26.9229,25.3994,-1.5235
AcPtRh,60.2147,49.6745,-10.5402
Mo3Ir,30.9997,27.5078,-3.4919
Cr2TcBr,44.6947,37.7241,-6.9706
YCuAgHg,25.6279,20.0567,-5.5712
Cu2SnIr,42.1711,39.7637,-2.4074
CdP2Se,18.6892,17.2301,-1.4591
TaGeNO2,10.4065,10.4348,0.0283
Ac(NdRh)2,35.5884,33.183,-2.4054
Na2CaZrBr,33.7523,27.918,-5.8343
Ba2MoPb,18.8046,18.7757,-0.029
Ac4AsPtS2,57.2962,51.4481,-5.8481
AgSb2Se,39.1429,30.6481,-8.4948
Co2AgSe,23.3734,20.3595,-3.0139
Er2Si2GeIr5,23.0105,26.0813,3.0708
Zn3CdSi,12.7963,11.7626,-1.0337
NbGeSe2N,50.3307,41.757,-8.5736
YSb2Br,36.0014,33.3564,-2.6449
KZnP,8.5208,8.6175,0.0967
Na2Li3PuF12,10.4683,11.9613,1.493
KBa2Ir,14.3337,15.5985,1.2648
Tl2Ir,48.7251,51.0488,2.3237
HgRh2W,34.3579,29.3465,-5.0114
Co2AgSe,23.3116,20.3595,-2.9521
Y2SbBr,28.0654,27.4804,-0.585
SiC2,47.2333,32.6064,-14.6269
Na2PaVO5,25.8874,22.4048,-3.4826
K2CaY,16.29,12.6389,-3.6511
YThPd4,23.4065,24.9505,1.544
Co2AuSe,28.179,26.7243,-1.4547
FeSiN2O,10.1515,7.3501,-2.8014
Sr5Tl4Pb,31.8666,33.3597,1.4932
BeAg2Te,27.1294,22.5286,-4.6008
BeAg2Te,27.2721,22.5286,-4.7435
TeI2,27.1996,28.023,0.8234
LaYAgHg,32.9971,24.4246,-8.5725
NaNbSeI2,53.0931,44.5688,-8.5243
CuSiSe,25.0107,19.9787,-5.032
RbTi3Os,14.5531,16.3811,1.828
Tb2NdRh2,28.3013,25.7199,-2.5814
LiSi4Os,14.1716,11.7546,-2.417
TaFe2Se,21.5059,21.6273,0.1214
YSbBr3,24.9064,22.8745,-2.0319
LiYTmAg,18.9668,19.1678,0.201
Ac2SbPt,64.9522,56.9971,-7.9551
Li2ZrSi,33.7021,28.6693,-5.0328
Dy3BC3,36.3449,29.6428,-6.7022
LaYSiAg,42.6063,33.4628,-9.1435
LiDySb2,28.7584,24.994,-3.7644
YTmZnAg,22.5395,20.9096,-1.6298
AcY2Sc,24.4161,26.431,2.0149
Ac3SnSb2Pt9,73.3832,55.7765,-17.6066
TbMgAg6,27.0385,21.6078,-5.4307
Co2SeBr,23.8656,19.4441,-4.4215
Y3(ZnPd)4,21.8753,19.1449,-2.7304
CdH6Ir2Pd,8.2831,10.5958,2.3128
Th2CuSb4,44.7759,40.5217,-4.2542
SrSiTe2,39.0472,32.5138,-6.5333
Co2TcBr,35.9899,29.5351,-6.4548
LiAc2Sb3Pt4,61.3002,47.7989,-13.5012
Co2TcBr,35.9518,29.5351,-6.4167
SiRu2Pb,31.8166,27.6803,-4.1363
Ac6TlCd2,52.728,54.1293,1.4013
Ba2BeP,9.6915,7.8465,-1.845
CsCo3Tc,29.8706,27.1141,-2.7565
Nd7Y12Sc,18.5408,18.6242,0.0834
Sm4NO3,11.0949,11.6229,0.5281
Tm6Cu2Ag,20.8379,22.7565,1.9185
ErFe4Ir,12.0254,15.0724,3.047
Ac2YSc,37.3222,39.965,2.6427
LiAc2SbPt6,70.3854,53.8653,-16.5201
Nd6Co2Os,16.3743,19.9131,3.5388
ScMn2Cr,61.4391,47.2891,-14.15
SrAcHgPb,32.0361,34.0874,2.0513
PmPRhS,26.6444,26.4074,-0.2371
Ac(NdY)4,18.8855,22.5182,3.6327
Y2TeMo2,32.8142,23.2788,-9.5354
ScMnCr2,38.679,30.5908,-8.0882
Nd(Ho3Co)2,17.6977,21.1742,3.4765
VPbS2,67.6147,54.509,-13.1057
Nd(YTm)4,17.1247,20.8303,3.7057
TlGa(TeO3)2,16.6912,15.2528,-1.4384
Li2ScIr,20.7035,14.596,-6.1074
Ac(PmY)4,18.9547,22.2312,3.2765
TaCrSe2,60.534,44.5741,-15.9598
Ac4Ir2Pt5,71.1965,59.8165,-11.3799
Li2ScIr,20.9551,14.596,-6.3591
Li2ScIr,20.9904,14.596,-6.3944
RhI,23.9413,21.4311,-2.5103
SmCuAg,20.9563,20.4052,-0.5511
AcPrPdPt,40.7937,35.7354,-5.0583
Ho2AgRu,26.1127,26.1323,0.0196
Tb2PtF,36.0446,32.169,-3.8756
Na2CrSb,26.2181,22.6274,-3.5906
Na3CrI,21.6084,19.0895,-2.5188
ScTl3,39.3313,40.8331,1.5018
ZrOs3Rh,57.2535,51.6534,-5.6001
BaGePPd3,7.4591,9.9873,2.5282
Li2ScIr,20.5012,14.596,-5.9052
Ca2TcRu,25.8311,24.9336,-0.8975
TiNbN2F,30.9624,26.9688,-3.9935
AcTePt,64.3821,56.1831,-8.1991
Tm2TlI,33.3735,35.3312,1.9578
Y4Te5,28.4791,28.6926,0.2135
Sn2OsPb,34.5977,36.9252,2.3275
GaIrN2O,25.063,22.8364,-2.2266
Y(Ga3S4)2,34.2021,25.7447,-8.4574
BeAlCu2,15.4603,12.9156,-2.5447
CaTbNd6,22.4812,24.0624,1.5813
Mg2TiCuH6,6.6939,6.0222,-0.6717
Hg4Mo2O9,5.7198,7.1891,1.4693
Zr7Pb,92.5335,76.9261,-15.6074
YSc2Be,9.7407,9.0906,-0.6502
Ho6Fe2Cu,22.4407,23.2532,0.8125
AlIrN2O,11.8648,11.662,-0.2028
Sc2Fe,24.2366,25.2631,1.0266
TmInI,20.1037,23.7525,3.6489
Nb2VN,103.1359,85.0639,-18.0719
La2GaPb,40.5166,33.7812,-6.7355
Pm(ThRh)2,42.7443,40.9807,-1.7636
AcTePt,58.6827,56.1831,-2.4997
NaLi2As2Pb,16.0136,16.1685,0.1549
SbTeRh,28.7261,25.2267,-3.4994
BaV2Si,62.8498,48.3376,-14.5122
Ac2TePt,63.8522,58.0595,-5.7927
MnIr3Ru,54.2404,47.9378,-6.3025
La2PuCd6,32.0039,29.2549,-2.749
SmEr3Ag2,25.3416,24.9385,-0.4031
InSbPbAu,41.1965,39.8493,-1.3472
BaC3,49.6128,33.4866,-16.1262
BeRh3,37.7254,26.8644,-10.861
ErNi4Pb,17.5256,20.0566,2.531
Rb(FeI3)2,11.6367,12.0728,0.436
ScFe2As,44.764,39.8575,-4.9065
TlGaIO2,43.9971,37.5996,-6.3975
La(CeCd3)2,23.7781,23.3008,-0.4773
Cs2CdAs4W,15.0784,16.2475,1.169
TcPb3C,63.7304,56.1286,-7.6019
AlSnN2O,28.539,23.351,-5.188
Pm(PrRh)2,22.1134,18.4862,-3.6273
ErNiBr,9.5153,14.5737,5.0584
Ti2Nb2Te7,53.1811,46.6169,-6.5642
Pr(Tm3Fe)2,19.4016,20.8831,1.4815
ScMnTl2,47.2698,43.3706,-3.8992
Pm(Tm3Fe)2,17.8809,20.9613,3.0804
AgCN2,39.7579,32.1193,-7.6387
Ac(PmCd3)2,25.1471,26.6525,1.5054
Ac8Te4AsPt3,58.841,53.9812,-4.8598
Co2IrSe,26.411,26.8695,0.4585
Na(PtAu)2,59.7879,48.4779,-11.31
Rb2BaTaSe4,28.0724,24.2164,-3.8561
SrAg4F8,15.5752,13.2736,-2.3016
Pm2PuCd6,26.0486,27.5371,1.4886
VIr,57.4884,55.8525,-1.6359
Tb4SmAg5,28.4968,26.0721,-2.4247
IrN2O,6.7998,11.0546,4.2548
Pm(SmCd3)2,20.7673,22.4459,1.6786
NaPmBi,34.3649,34.4172,0.0523
Ho6Fe2Pd,14.8881,17.9713,3.0832
NaVIr2Pt,67.9689,56.2117,-11.7572
BaYAgB2,48.6299,38.8956,-9.7343
Rb2TeI,13.838,14.3679,0.5299
CeSc,8.9786,13.9769,4.9984
Sc7Tl,10.7386,12.2449,1.5063
DyY4In,18.2676,19.9102,1.6426
ErNbN2,33.3199,31.1043,-2.2156
Sr2Ag2Pd15,18.5127,18.8976,0.3849
Zr2ReTe,69.702,62.5398,-7.1622
BiTeRu,21.3201,26.9528,5.6327
NaZrTa2Mo,44.2511,40.906,-3.345
CuI2,17.4964,19.3919,1.8955
LaCo2Se,27.9281,22.9337,-4.9944
KMn2Ag,56.8106,42.8344,-13.9762
NaZn5Ag2,15.722,13.5844,-2.1376
HfNiGe,59.0874,42.2164,-16.871
ScTe,26.4081,26.0136,-0.3945
LaTbY4,22.3136,21.4671,-0.8466
NaPmBi,34.2951,34.4172,0.1221
PdICl,11.8262,12.7044,0.8783
Sm2ThCd6,25.4027,27.2121,1.8093
TaTlGaS2,59.8834,47.5316,-12.3519
NaPmBi2,39.151,39.5435,0.3925
Tb3ErCu2,16.0431,18.6883,2.6452
Sm(Cd3Au)2,25.8291,27.0807,1.2516
Tc2GeSb,59.9819,50.3785,-9.6033
TiNbRu,25.102,29.2971,4.1951
KBaOs2,25.3476,26.2334,0.8859
SmNiGe,13.7396,14.4027,0.6631
Sm6Tc2Ag,34.9027,33.3126,-1.5901
CeSnRu,12.9339,17.4284,4.4945
As2RuC,30.4805,25.2196,-5.2609
NaLi2Y,7.6607,8.5905,0.9298
Tm6CuSn,37.7756,37.1441,-0.6315
Al2CuSb,15.6972,11.3006,-4.3966
AcPr5Nd4,13.9413,16.6136,2.6723
Na(VNi)2,53.0294,43.7702,-9.2592
LiYCuAg,25.8848,20.3776,-5.5072
Tm5Cu2Sn,29.6933,30.3685,0.6752
PrNiGe,7.0609,6.5848,-0.4761
Re(IrRh)2,44.9257,42.282,-2.6437
Pm6Fe2Sn,13.0566,15.9936,2.937
Cu3BiRu,19.6833,20.4655,0.7822
CuSiRh,24.7344,19.9817,-4.7527
PaAgSb,47.8196,43.7619,-4.0577
CsTaMo2,24.6337,27.0113,2.3776
GdGa4Rh,11.8029,11.6022,-0.2007
SiRhF2,22.9636,18.0887,-4.8749
NaCuAs2Br,15.1599,13.8822,-1.2777
Na(FeI3)4,19.4773,19.5751,0.0978
Y4TmTl,22.6953,25.5725,2.8773
InRhNO2,21.629,17.9785,-3.6504
Sm2AgRu,24.7184,25.0909,0.3725
Rb2LiI4,13.8932,13.5791,-0.3141
LuNi,3.405,11.9219,8.5169
Ce6CdBi2,30.7021,32.4353,1.7332
Ba4RePb,24.3271,20.8432,-3.4839
Cd(ReOs)2,50.8201,48.8187,-2.0015
Rb2SbW,21.2882,18.6034,-2.6848
Sr2YTe,22.5415,21.038,-1.5035
AlAgMo2,26.2852,20.705,-5.5801
Zr2TcRu,75.8563,65.4377,-10.4186
YTeW2,43.3361,37.2489,-6.0872
LaSmYPu,40.849,39.0223,-1.8268
PdN2OF,18.8257,16.4297,-2.3961
VBi3Sb,67.9326,60.3088,-7.6239
HgSb3W,36.354,30.4424,-5.9116
V6Sn2NO,95.9416,73.7341,-22.2075
LiZn(GeO3)2,8.2046,6.592,-1.6126
Na(InHg3)4,5.9377,5.9557,0.018
AcYIn6,25.4881,25.6049,0.1167
Rb3ScRe,29.5029,21.1436,-8.3593
NaMnS3,59.7858,46.957,-12.8288
Na3TaIn3Se8,36.2965,30.9049,-5.3916
Sm2ErRh2,34.8436,31.1518,-3.6918
AcTmPt2,61.0528,49.594,-11.4589
Rb3NiW,14.92,11.8031,-3.1169
Cu4TeIr,19.0187,20.5784,1.5597
Na2(PaSe2)3,47.8542,43.656,-4.1982
Ba(AgPb)3,33.0884,30.6575,-2.4309
Na3Zr3TaSe8,51.5489,42.1612,-9.3877
Y2ErTh2,37.9053,40.5865,2.6811
InAg3N,25.15,19.8761,-5.2739
Nd5(YIn2)2,22.1336,22.6009,0.4672
TaNi3Pb,23.1488,24.8362,1.6874
ScTaPb2,91.0002,79.8914,-11.1088
Sm(BiRh)2,40.0913,36.5272,-3.5641
SmTmAl,19.5223,22.5808,3.0586
Li2Pm2GaPd5,10.3019,12.7813,2.4793
InAgP2,15.1156,14.4076,-0.708
YSbIr,33.7362,33.9827,0.2465
ScTa2Pb,86.9569,76.3896,-10.5673
ScTa2Pb,86.848,76.3896,-10.4584
YHo4Th,32.2041,35.8076,3.6035
BeRhAu2,35.9172,33.9377,-1.9795
CsLaO2,25.7464,27.5702,1.8238
YSbIr,33.8412,33.9827,0.1415
Np2NO,34.4521,37.2178,2.7658
BaLiMn,36.5884,28.2118,-8.3766
Pu6CdSn2,55.0786,56.3721,1.2934
LiSmLu,19.7727,22.2008,2.4281
NaLaTi2As,30.8163,22.3237,-8.4927
YSb2Ir,36.7538,33.6491,-3.1047
In2PbF4,16.6217,17.0741,0.4524
Ac4Si2Pt5,65.8347,52.8589,-12.9759
LiSb2W,32.4493,29.1563,-3.293
Rb3Sc3TaSe8,42.5562,34.7144,-7.8418
ZrScCu,51.1537,42.4612,-8.6925
InPbF3,18.3145,18.9523,0.6378
Be2CrCu,6.5834,6.0416,-0.5418
CsTe(IO4)2,21.6601,18.9496,-2.7105
Ca2SbPb,24.5141,23.5602,-0.9539
Y2SbIr,28.4361,29.2157,0.7796
Ca(SbPb)2,37.2025,33.165,-4.0375
Ca2InC,19.1056,17.5278,-1.5778
In2SiW,23.969,24.2461,0.2771
Dy3Y6TmSc2,17.2126,18.8474,1.6347
Co2ReSe,25.6049,25.7231,0.1182
SrAlSe2,27.9568,24.7047,-3.2521
CaY2Zn,17.2044,13.2813,-3.9231
CsSnF3,11.3725,10.4826,-0.8899
InNi,12.9336,15.453,2.5193
Ba2Cd6Pb,18.3449,19.3131,0.9682
ErTm2TlO,27.1732,30.8877,3.7144
LiTaSb2,31.744,28.2148,-3.5292
TcSeN2O,30.1964,25.1378,-5.0585
RbNiBi3,36.2574,36.5416,0.2842
NaSm(MgH4)2,6.3219,6.1791,-0.1428
Ac3Zn2Pd9Pt,30.1325,29.4003,-0.7322
Ta2BeAg,29.1802,29.518,0.3378
Pu2HfCd6,44.7205,41.3217,-3.3988
GaTcNO2,33.8608,27.8491,-6.0118
SiP2C,19.8812,14.5862,-5.2949
ZrAuSe4,56.792,47.8483,-8.9437
Ta2BeAg,29.3951,29.518,0.1229
Ca4In2C,17.1993,15.506,-1.6932
SbAuC3,57.7268,42.965,-14.7618
Hf2RuW,85.6194,64.7704,-20.849
VAgSb3,59.3451,45.5444,-13.8007
Cu2Mo2P,21.9861,14.4081,-7.578
Co2ReSe,25.5539,25.7231,0.1692
SmErLuPa,39.1888,42.4343,3.2454
SnRhPb,30.3195,28.4986,-1.8208
CsNb(SbO4)2,30.9344,27.1995,-3.7349
YPaZnIn,29.27,30.0123,0.7423
Rb(SeI)2,26.6165,22.9366,-3.68
AgRuRh2,47.8084,35.7667,-12.0417
Sn(RhPb2)2,47.6167,43.757,-3.8597
Co2ReSe,25.6741,25.7231,0.049
KBaBr2,10.4207,10.1603,-0.2604
Ce6Tl2Cd,29.9412,31.8039,1.8627
Th2CdIrPb,42.7625,48.2652,5.5028
Sn(PtRh)2,53.6678,39.0393,-14.6284
LiLa2Br2,28.4009,21.1687,-7.2322
Cd(SnI3)2,21.5568,22.0842,0.5273
CsSrNb,50.4705,44.0736,-6.397
SmTm2Al3,11.4025,15.7713,4.3688
CoOs4W,78.4177,68.3646,-10.0531
CeYAgIr,28.0221,28.8659,0.8437
DyPa2NbN4,36.8933,36.4221,-0.4712
VAg3Sb,54.6224,41.5286,-13.0938
Ge2PPt2,34.896,26.034,-8.862
YTeIr2,35.5651,39.4158,3.8507
BeCuPb,25.8402,24.3938,-1.4464
Y(SbIr)2,37.8587,36.1838,-1.6749
BeCr2Cu,10.4952,8.7348,-1.7604
Zn4AgAu,18.135,17.7705,-0.3645
CeZn4Ag,14.5965,14.4202,-0.1763
Ac8Ge3PtBr4,41.8715,40.7675,-1.104
InRe2Au,36.9705,40.5193,3.5488
Ce2TmAu6,39.8075,41.7026,1.8951
AlZn2In,7.5898,9.6877,2.0979
Ce2TmHg6,8.3893,9.872,1.4827
Zn(GeBi)2,24.0454,25.2919,1.2465
Nd3Ni,20.0957,23.0195,2.9238
Ba2SrW,22.6629,16.1122,-6.5507
AlZnIn,3.0651,6.9752,3.9101
Al3SeI,18.8411,15.547,-3.2941
Rb2NaSr2,10.2315,9.5027,-0.7288
Cu2IrC,30.8954,27.806,-3.0894
Tm2ThRh2,37.4603,35.2097,-2.2506
TiPS2I,30.5392,26.5109,-4.0283
SrTe2NO,32.113,28.9696,-3.1433
Ce2Pt2Rh,33.2886,23.8836,-9.405
Al3Zn3In,5.8782,7.2103,1.3321
Er2Tl2Rh,41.4483,40.6969,-0.7514
AsPCl4,12.1155,10.6016,-1.5139
Ce6HoPa2,35.2547,37.2154,1.9608
ZnTc2Pb,62.0726,54.6518,-7.4208
ZnTcW,21.9818,26.6146,4.6328
Pa2NbAlN6,27.2693,27.0867,-0.1826
ZnTcPb,51.9967,47.0971,-4.8996
ZnTc2W,58.0583,52.5136,-5.5447
ScAgN2O,59.9889,51.1249,-8.864
Zn2TcPb,40.5442,37.5922,-2.952
Zn2TcW,36.9105,35.6942,-1.2164
Th2CuRu,39.1403,41.9233,2.7829
Zr2OsBr,62.681,55.5934,-7.0876
Ti3SbRu,15.3555,15.3402,-0.0153
TcPbW2,56.2819,55.8689,-0.413
YPC,36.5479,27.6894,-8.8584
Hf(PW)2,128.1102,102.6148,-25.4954
TaCuSi,20.755,22.1496,1.3945
KCr2P,26.3836,21.1143,-5.2694
Ac2InSi3Pt4,54.185,41.8308,-12.3542
AcInPtI,43.5048,40.6994,-2.8054
Si2Os2N,32.6298,28.0012,-4.6286
Te3Se,44.0148,38.8371,-5.1777
TcPb2Se,57.7067,52.6404,-5.0663
Pm2NdTl3,33.4451,37.1958,3.7506
TcPbSe,65.6549,57.8259,-7.829
CeThZn4,19.9781,22.0968,2.1187
Sr2La2Ir,33.6768,24.9965,-8.6802
Fe2SbPb,37.0182,32.4601,-4.5581
Zn2Sn2Bi,19.6111,21.2542,1.6431
CeTmZn4,14.0374,15.8874,1.85
Zr2OsBr,62.1641,55.5934,-6.5708
YHo3Tm,20.9536,27.0127,6.059
I3O8,13.4657,10.6284,-2.8373
SbPbSe2,48.3083,42.4716,-5.8367
Ac2PrPtO5,18.2472,15.6211,-2.626
LiMnIr2,46.6696,43.1153,-3.5544
Fe4PbSe,22.0499,18.9365,-3.1134
Y3Mo5N8,31.8326,28.5937,-3.2389
Li4YP2,9.0404,5.8174,-3.223
LiYZr2,53.1203,45.421,-7.6993
LiMnIr2,46.546,43.1153,-3.4307
TiINO2,19.4736,16.8792,-2.5944
Li2TbY,10.4925,12.6356,2.1431
LiYZr,37.6908,34.1385,-3.5523
TaCo2Se,45.5585,34.6134,-10.9451
Li2SiRu,14.5027,12.6668,-1.8359
ZnIn4Ga,15.9373,17.0322,1.0949
NaTa3Be,30.2689,30.3905,0.1215
Cd3AgSb,27.1357,23.8229,-3.3128
SiTcNiRh,25.8357,32.8751,7.0394
Ca2AcTb,25.5507,27.7296,2.1789
Ru3AuN,42.0376,38.867,-3.1706
TaBeV,63.6465,58.8607,-4.7858
Tl2PtBr,51.1873,45.0386,-6.1487
CePu4Ge2Pd,43.329,45.4414,2.1124
SnBi2Os,43.6767,45.9115,2.2348
CaAc2Pt,50.7077,46.1372,-4.5705
LiNdDyAg,20.8891,20.9915,0.1024
TlPtBr3,36.3413,30.0559,-6.2853
TlPt3Br,67.6665,50.6212,-17.0453
HfNb2PtN,102.5915,81.1732,-21.4183
ZrNb2CdN,79.7979,67.1167,-12.6812
GdPaAs,35.0916,38.1663,3.0747
SrAlAu2,27.6875,28.8337,1.1462
ScCd3Re,45.6392,36.6326,-9.0066
CaTmMg,12.8557,14.7345,1.8787
SrTlNi2,23.2992,22.6038,-0.6954
LiSi3Ru,19.4942,13.5324,-5.9618
NbSiPb,63.3215,56.3032,-7.0183
Cd2GaRe,51.7178,41.1545,-10.5633
LiSiRu,19.5301,8.7354,-10.7947
Li2SiRu,10.3995,12.6668,2.2674
FeRuW2,31.7401,31.75,0.01
Li2ScTe,13.4921,12.8716,-0.6206
Ta2PW,86.1769,78.1333,-8.0436
V2AgSb2,70.2736,54.3245,-15.9491
CaAc2PtO5,25.7368,23.7725,-1.9642
GaFe3Pb,22.9741,18.604,-4.3701
CuRuN2O,25.4544,22.161,-3.2935
Cs4CoO5,10.0524,11.4613,1.4088
NaAgBi3,44.2377,42.1757,-2.062
GeRuN2O,26.0854,23.3343,-2.7511
NbInN,46.2996,41.8245,-4.4751
LiHo2Ta,24.0537,27.3598,3.3061
YV3C,102.7928,78.3037,-24.4891
Er2InSn2,10.0612,14.6051,4.5439
NaNbPdBr2,42.3923,36.0909,-6.3014
Cd(InCl3)2,5.517,6.3796,0.8626
Fe2Te3Pb,28.2542,26.9972,-1.257
RuRhNO2,33.5853,27.1048,-6.4805
Ba2NaPuO5,1.3126,2.9696,1.657
Zn(CoCl3)2,3.7182,2.8618,-0.8564
Tl(CoCl3)2,5.6529,6.1399,0.487
Sr(CoCl3)2,4.1187,4.6312,0.5125
ScTa3Sn,72.0418,63.5056,-8.5361
TaSnPt2,58.7103,47.798,-10.9124
La3ErIr,45.3827,35.8198,-9.563
Dy4B5C2,28.7806,26.5521,-2.2285
ErCrO4F,0.3822,2.1042,1.722
Pm6Nd2Y3In,22.2305,23.1483,0.9178
Ca2PuCl6,9.8694,12.0356,2.1662
MgTlTe2,34.0751,33.6537,-0.4215
PrHfNO2,22.5409,14.4928,-8.0481
CeY2(HoBi2)3,37.9196,39.7145,1.795
FeTePb2,39.5239,38.4312,-1.0926
Zr5FeTc4,85.9507,71.8419,-14.1088
LiSbN2O,22.8026,19.5191,-3.2834
Pr2Sc3Rh2,14.2834,11.96,-2.3234
InFe2Sb,29.3459,23.3903,-5.9556
Ac2Cu2Pt5Au,57.4239,45.8844,-11.5394
NbV2ZnN,88.9623,71.4101,-17.5522
Li2ScTl,14.9162,16.24,1.3238
Co2PtCl6,9.7934,8.2006,-1.5928
Co2PdCl6,2.9072,3.5767,0.6695
Co2SnCl6,1.9026,2.7432,0.8406
Cd(ReOs)2,50.8642,48.8187,-2.0456
Na3U(AgSe3)2,40.437,33.6197,-6.8173
CuSiW,21.645,23.5273,1.8823
ScSb2W,35.1888,30.9319,-4.2568
PaCuTc2,64.9783,58.9303,-6.048
CuSiW,22.1108,23.5273,1.4165
Zr2Fe2Tc,57.9635,49.54,-8.4235
IrPbBr,46.9744,42.5525,-4.4218
Co2WSe,26.0906,25.4386,-0.652
CuSiW2,25.8784,27.915,2.0366
HfMo,27.144,24.6706,-2.4734
TbGe4Pb,19.2469,20.6085,1.3617
Fe2CoCl6,4.8049,4.1971,-0.6078
SrTaTc2,60.3481,48.6316,-11.7165
ErZrIr2,52.842,51.6545,-1.1875
Ir2PbBr,46.0329,43.7342,-2.2987
Ac2La2Zn3,36.3209,33.1945,-3.1264
SrHf2Pd,74.2632,54.8174,-19.4458
CuSiW2,25.6961,27.915,2.2189
EuEr2Fe,21.8044,24.539,2.7346
Ga(CuCl3)2,2.3238,2.5239,0.2002
LiTa2Cr,46.5298,38.4477,-8.082
KY2Sc,11.6759,13.4249,1.749
In3PF,14.2507,14.7957,0.5451
In(CuCl3)2,3.3004,4.1108,0.8104
CdSb2Mo,31.3458,27.9552,-3.3906
Ac2InGe3Pt4,52.5734,42.5443,-10.0292
ScSb2W,35.263,30.9319,-4.331
MnInAg2,45.5925,36.0337,-9.5589
Ba2NaIn3Sn4,16.355,16.818,0.4631
CsLi2SmBr6,17.7146,18.1045,0.3899
Tl(ZnMo)2,14.8011,18.7481,3.947
CsLi2TbBr6,17.8772,17.905,0.0279
KCu2HgI6,13.6205,14.3212,0.7007