Formula,E_hull_DFT (eV/atom),E_hull_ML (eV/atom),Delta (ML - DFT)
NaNdPd10,18.6547,19.8266,1.172
LiZrNiRu,30.1054,28.9699,-1.1355
Sc3AlTc,45.6135,39.4304,-6.1831
LiPtBr,41.9849,34.6595,-7.3254
ScHgS2N,32.5169,26.1679,-6.3489
NiPtRh2,42.6998,36.4594,-6.2404
CoGeMo3,13.9282,16.1549,2.2267
Co2GeMo,9.2657,12.9228,3.6571
Ce(ErTm2)2,29.49,32.4403,2.9503
Sb2MoAs,29.3211,27.4355,-1.8856
YTeAs2Br,17.7948,17.9179,0.1231
VInAs2Se,55.2275,46.8082,-8.4193
Mg2CoRe2,15.5121,17.4667,1.9546
SbMo2As,21.5756,22.9204,1.3448
Y2AlIrSe,36.5891,31.3591,-5.23
CsLiAuSe2,29.6368,26.6889,-2.9479
AcYAu4,43.8022,46.1193,2.3171
Mn2ZnCo,60.229,46.3062,-13.9228
NaCdCu4,11.8473,12.3189,0.4716
K2ZnCu,9.7649,9.3998,-0.3651
YAsPtBr2,28.2683,23.2546,-5.0137
EuZnO2,14.4154,12.0012,-2.4142
Sr3Ce2YAs6,17.453,15.6557,-1.7973
YMnRe2Pt,58.4815,50.2138,-8.2677
AgB3Mo,12.0205,12.1118,0.0913
CeSmTc,40.5061,39.3687,-1.1374
PuVNi2,53.4777,48.0298,-5.4479
K(GeSb)2,20.3928,18.5105,-1.8823
Na4La2Bi3H2,32.7574,29.5909,-3.1666
VHg2AsSe,49.6708,40.8896,-8.7812
BaNa3Sc,16.839,14.218,-2.6209
CaCu4Si,11.0969,10.2967,-0.8002
BaScSi2,26.074,21.4225,-4.6515
Tm4AgHgAu2,30.385,31.5406,1.1556
BeFe4Mo,24.0127,20.4207,-3.592
YCu(Ni2Ge)2,30.9696,26.4863,-4.4833
La4ReSe,49.805,39.2636,-10.5414
NiPd3Pt7,62.6249,46.6467,-15.9782
CsScSn,15.5589,15.8021,0.2432
La2PrI,29.9481,24.3732,-5.5749
BaScSi,29.3175,25.5978,-3.7197
Y6SnTe3As2,23.0924,21.655,-1.4374
BaY3Ir,30.6056,29.7764,-0.8292
Ta2NiSe7,35.1146,30.474,-4.6406
Ca(YSb)2,22.4919,20.0033,-2.4886
ZnCoAu4,38.8512,36.3586,-2.4926
LaRh4Cl,41.9956,30.8695,-11.1261
ZnCr2Ir,21.2681,18.5846,-2.6834
CaZnAs4,10.2717,9.6358,-0.636
ZrBeO3,9.017,8.5509,-0.4662
Na(AsOs)2,25.8788,27.1028,1.2241
Zn2CrIr,22.1926,19.2218,-2.9708
BaY3Ir,30.2775,29.7764,-0.5011
AsW2,20.8771,29.3512,8.4741
Na2Tm(WO4)3,12.864,15.6059,2.742
NdTm4Co,25.5036,27.9331,2.4295
TlRu2,22.8108,27.6925,4.8816
Na3Zr(VTe3)2,56.2017,47.449,-8.7526
Ta2NiSe,31.9994,33.0688,1.0693
Na12(CuO2)7,9.7461,8.7469,-0.9992
SrSb2Pt,47.4476,38.4422,-9.0055
SrSi2Ag,29.538,21.1611,-8.3769
Ta5Ge3H,14.3647,19.3648,5.0001
CeNp2MnN5,28.8938,27.6007,-1.2931
TlNi2Ru,20.2631,23.1781,2.9151
Tl4NiRu,38.7934,39.7627,0.9693
CoNiAs4,15.4922,14.1453,-1.3469
NaTlRhPb,44.272,40.5753,-3.6967
NaCr2NiPt,37.1667,30.2105,-6.9562
Eu2YVO6,25.6022,23.1154,-2.4868
ScCr3H8,5.2388,4.2137,-1.0251
ZnSb2Ir,39.2827,33.7253,-5.5573
Cd4PPb,22.4658,23.483,1.0172
La4PtCCl2,44.5112,32.295,-12.2162
ScNi4Mo,19.2886,18.6586,-0.63
CePm3N4,11.3382,13.585,2.2468
Ce4Pt,32.0435,29.441,-2.6024
GeBi6,48.7662,49.4195,0.6533
PrBeAu3,26.8841,28.8776,1.9934
Np8HRu3,51.1388,52.3838,1.245
GeBi,5.8762,12.5799,6.7036
Pt2RhBr,61.3635,44.6634,-16.7001
V(H3Os)4,17.7146,16.977,-0.7376
Zr5HPd3,52.721,46.4248,-6.2963
Ti3BePb,13.9497,15.5506,1.601
PtPb2W,59.0885,54.4884,-4.6001
Hf2BiIr,87.9082,71.2171,-16.6911
Er2Cu(H3Pt)2,24.2561,20.0451,-4.211
In2Ge2Pb,18.7916,20.7357,1.9441
CaSiRh4,39.3407,28.0846,-11.2561
VZn2Pb,49.6174,42.8937,-6.7237
CdCoPd4,17.3865,18.3255,0.939
CoSb4Pd,30.1053,25.83,-4.2754
CoOsRh,32.4096,31.9436,-0.466
Ba6Nb9CoO30,26.0955,21.0228,-5.0727
AcPr(ThAs2)2,27.5649,30.325,2.76
YCuRh4,44.5379,32.3726,-12.1653
La2Zr5Sb3H2,60.0838,50.2986,-9.7852
CsPaI6,27.5875,27.6943,0.1068
Be2VSe,39.9969,33.0555,-6.9414
LuAl4Co,11.4989,9.9418,-1.5571
Ca9Sn4H,8.5817,9.7858,1.2041
Ca2InSe,36.2529,30.8952,-5.3577
YSb2As,28.0062,25.6994,-2.3068
ZnSb2Mo,28.6125,26.5052,-2.1073
NaCa3(LaSe3)2,55.0492,42.4673,-12.5819
BePbSe2,37.0858,34.0227,-3.0631
Pr2Ta2Si2H,12.8671,14.3985,1.5314
PmPr4Co,2.316,4.1381,1.8221
Tb4PrCo,17.9331,20.4795,2.5464
Pr4CoRh,-0.0,0.2489,0.2489
CaInSe4,50.0657,40.4194,-9.6463
LaY2NiBi,71.4981,62.3543,-9.1438
NaNi2OsAu,26.5643,26.7655,0.2012
CrCu2Sb,19.4796,16.2785,-3.2011
InFeTc2,47.5109,40.7636,-6.7474
UNi10Pd,12.3759,14.3069,1.9311
Be2PbSe,25.456,24.1539,-1.3022
Tb5Si3H,13.5793,13.6257,0.0464
YErTmSc2,11.6702,15.1394,3.4691
BePbSe2,37.1532,34.0227,-3.1305
Na(CoAu)2,23.8054,24.2876,0.4823
FeSbPt4,73.9443,54.2158,-19.7286
CsTe,23.9598,24.0851,0.1253
PaZn4Fe,18.3195,18.4841,0.1646
YbFe7,4.7358,6.599,1.8632
ScNbCd2,46.3689,40.5495,-5.8194
Zn(CrGe)2,4.0399,4.483,0.443
YScW2,34.775,28.8042,-5.9709
CoSb4Pt,41.1358,33.4419,-7.6939
ZnCrGe2,10.1591,10.2295,0.0704
In3Tc,34.0553,31.5346,-2.5207
Cr2Ag,11.0984,8.6974,-2.401
ScCr3H8,5.2252,4.2137,-1.0116
ScNi4W,16.1509,14.3578,-1.7931
TlFe2H7Ir2,11.7139,13.015,1.3011
NpBiSb,49.9241,50.9619,1.0379
Ag6I,30.7759,24.8053,-5.9706
In3Tc,38.3582,31.5346,-6.8236
Sr2Cr,15.3105,12.9015,-2.409
CeU3N4,27.8958,30.2326,2.3368
CoPtSe4,47.7527,37.0208,-10.7319
ScCrH4,2.2382,1.7971,-0.4411
VSnAs2,42.9507,37.0516,-5.8991
CoReSe4,39.6197,34.1696,-5.45
CsLi(AuF4)2,14.7443,15.9197,1.1753
AcPmNi10,12.3624,14.1797,1.8173
CoRuSe4,30.1372,25.8877,-4.2495
Zn(H3Os)2,10.6123,12.2652,1.6529
Na4Nb3O10,29.1588,23.1638,-5.995
AlMoAu4,38.3516,37.749,-0.6026
Na4Ta3O10,11.2909,10.3623,-0.9286
Mn(H2Ru)2,13.2402,13.9535,0.7134
BaSr2La,19.8027,17.5922,-2.2106
Li3ICl,8.4238,9.4283,1.0045
P2OsN,33.4066,29.3668,-4.0398
Mn2Ru2Rh,56.302,46.792,-9.51
Zr3CrH8,24.9935,21.345,-3.6485
Nb3Al2H,50.299,40.9834,-9.3156
CsPaI4,25.5679,26.1736,0.6056
BaSrLa2Fe,32.7091,24.8963,-7.8128
Lu12Mn3H5,19.9832,18.7955,-1.1878
CeIBr3,11.1888,13.0881,1.8993
K2LiSi2,12.4837,10.0874,-2.3963
Sr2Pb2I,27.1761,29.2226,2.0465
CoSn4Au,23.3448,23.8815,0.5368
CoMoPt2,49.958,39.3739,-10.5841
SmHo4Co,24.0192,26.4068,2.3876
Zr8H2C3,73.9531,59.4037,-14.5494
Cd5P,16.9226,17.7066,0.784
CoMoPt,36.9912,31.8379,-5.1533
PuCuBrO4,6.6575,7.3529,0.6953
SrBePt3,54.1793,38.4865,-15.6928
Sr2Re2I,39.1905,31.0989,-8.0916
Y2ScTl2,21.4443,24.4181,2.9738
Th4CoTc,52.5333,52.9407,0.4074
CoTe4Ir,36.1411,35.7801,-0.361
Tm4CoTc,30.811,30.9525,0.1415
PtPb2W,58.8568,54.4884,-4.3684
Tm4CoOs,21.9728,25.6779,3.7051
Pt2W,72.8364,57.9452,-14.8912
VPbW3,62.5839,57.9765,-4.6074
NaTlTcCl2,35.6662,30.5784,-5.0879
YInNi,45.1643,42.8175,-2.3468
LiHf(ScS3)2,55.6951,42.5577,-13.1374
CeHo2Re,31.1103,34.6597,3.5494
Ba2Sc(SbS3)2,41.9644,32.812,-9.1524
In2Ga2Au,20.7951,21.9696,1.1745
Tm(H4Ir)2,10.609,11.7209,1.1119
MnCo7H12,7.444,7.0096,-0.4344
LiY2TlP,26.9611,23.6705,-3.2906
SrFe3Si2,9.4937,7.7303,-1.7633
PuH12Ru5,8.6635,9.4525,0.789
YIn5Ni,37.6491,35.5162,-2.1329
PuH12Ru5,8.6487,9.4525,0.8038
ZnSi2Sn,14.2104,11.142,-3.0684
ScBe2Ir,20.0858,17.2393,-2.8465
Ce2H5Ir2,14.7855,16.0193,1.2338
Tm(H4Ir)2,10.528,11.7209,1.1929
Cd2GeRu2,10.9865,14.727,3.7405
P2OsN,33.5978,29.3668,-4.231
Ni2PtBr,29.667,24.3015,-5.3655
SrScRh2O,73.8806,60.9078,-12.9728
CeSm(NiSn)4,24.703,19.7681,-4.9348
Np6HPb2,58.7282,59.6115,0.8834
PrYInNi,47.5699,43.3104,-4.2595
Y2InNiN,65.1209,57.4312,-7.6896
CaVTe2,54.2998,46.5214,-7.7784
Cr3Rh,10.1218,10.1978,0.076
Ca2Co3Sn,14.9418,13.3819,-1.5598
Ca4BeIr,21.5315,16.4141,-5.1174
Mo4PRu,21.6253,19.4853,-2.1401
Co2TcNi,46.4896,38.9854,-7.5043
Tl2BiAuBr6,26.6496,27.3907,0.7411
NiMoCl3,21.1708,17.8957,-3.275
CoTc2Ni,68.1354,55.9652,-12.1703
TbCrH6,4.3089,5.4647,1.1558
Y3In3Si2Ni,49.1115,43.0872,-6.0243
YIn2NiPb,51.506,48.0649,-3.4411
Er2Ga10NiPd,14.4393,14.0841,-0.3552
ZrPW2,102.1514,88.9392,-13.2122
ScV4Sn,95.4946,73.4887,-22.006
YNiPb2,63.1966,60.3317,-2.8649
Co(BMo)3,0.0,6.9857,6.9857
ScInSi2,25.8946,23.3375,-2.557
Ga5Sn2,12.0118,13.2121,1.2004
PrSbSe2,33.7515,28.5438,-5.2077
BaAcGd,31.404,33.5312,2.1271
Dy3YTm5,23.1136,25.5905,2.4769
Mo3PI,22.0983,19.7421,-2.3563
Ca2Sc2Sb,15.1392,10.1638,-4.9754
Y2Ni2Pb,76.7899,69.0426,-7.7473
K2TiTe,14.6445,15.4665,0.8219
Ta2H4Ru3,13.5131,16.8435,3.3304
TcAs2Ir,39.0732,37.1556,-1.9176
Sc2Sn2BRh4,40.2868,31.6399,-8.6469
Th2Te2H5,23.7173,23.6015,-0.1158
Y2AlV2,63.0903,48.7141,-14.3763
Pa2Ge,39.4327,44.305,4.8723
Rh2AuSe,48.477,39.6413,-8.8357
Y2TlNi,75.6754,68.9448,-6.7306
RhAu2Se,48.2993,42.9992,-5.3002
SrTi2Mo,5.7794,8.7212,2.9418
GeSe2,31.7213,26.9301,-4.7913
Tc2Ge,56.3284,48.5436,-7.7847
PtPbW2,55.5573,51.9476,-3.6097
TaCoOs4,49.4552,46.0137,-3.4416
Be2ZnHg,8.0513,4.712,-3.3393
Na5Au,26.498,23.3669,-3.131
Cu(PtBr)2,42.3457,31.3871,-10.9587
NdTmBr3,12.1615,15.5376,3.376
ScW2Br,25.7645,27.5225,1.758
Y6TlNi,44.9612,42.2564,-2.7049
TlTc2Ni,61.2195,54.3667,-6.8528
InGa2,12.3064,13.8088,1.5024
Cu2Pt2Br,43.784,33.1994,-10.5845
BiRuRh2,47.4354,39.663,-7.7724
CaCo3Sb,23.4195,18.4367,-4.9828
Tm6NiIr3Rh2,34.3227,33.6948,-0.6279
LaHoCo4,17.2556,16.9979,-0.2578
Pt2PbW,67.9356,57.4586,-10.4769
Ac2PuScS6,49.2217,42.8408,-6.3809
Ba2PuScS6,37.2247,30.5461,-6.6786
Ac2ScCdS6,46.0183,38.9206,-7.0976
ScPb3Au,42.4192,43.4674,1.0482
InFeCo2,22.1488,18.735,-3.4139
Ho(Re2Sn)2,32.7713,35.4388,2.6675
PaAsBrO4,4.1465,7.6759,3.5294
Y2Si2Pd,31.546,28.2515,-3.2946
CaAg4Rh,29.9101,23.786,-6.1241
In4FeCo,21.9771,20.5131,-1.464
KYBr,11.8857,13.6273,1.7415
Sc2PbAu2,31.0101,33.0226,2.0125
Sc2CdRhO,65.5266,56.3795,-9.1471
Sc2InSi2Rh5,35.9512,27.6265,-8.3247
ScPbAu,29.7538,33.2467,3.4929
SrGd2Al,18.956,21.1841,2.2281
MnOsRu4,34.8923,34.1217,-0.7706
ScSb,22.6634,20.5862,-2.0772
POs3N,43.6386,40.3541,-3.2846
Ag2SnSb,32.1725,27.5942,-4.5783
YTlNiS3,58.0894,48.6104,-9.479
IrC3Br,50.9695,37.9556,-13.0139
Na3Pb2,33.3992,31.8599,-1.5393
Ag(SnSb)2,29.0627,25.5403,-3.5224
LiRePb4,42.7829,43.6313,0.8483
Cs3SrSn,22.0954,22.4354,0.34
Cr2IrC,37.7988,35.9515,-1.8473
SrGaSn2,15.5583,17.4082,1.85
NiOs2Rh,28.7164,30.4505,1.7341
Zn4CuRu,9.4521,10.9327,1.4806
Sc6SnS8,47.5151,39.8085,-7.7066
Tc3TeMo,71.0676,58.6606,-12.4069
YPa2CuO8,17.5349,18.3744,0.8394
NaCoAs2,12.7154,12.6784,-0.037
Ac2ScInS6,45.6628,38.772,-6.8908
Ca3SiI2,15.0328,13.6705,-1.3623
YTm6In,27.7615,29.7027,1.9412
DyPaNi10,12.6968,14.5629,1.866
TcTeMo,53.4733,45.8003,-7.6729
NdEr4Co,24.6548,27.0659,2.4111
Sr3RhBr,17.5737,15.1837,-2.39
ScNiW4,29.2343,32.3112,3.0769
Ta2NiIr5,36.5464,39.4971,2.9507
Ca4TaBe,15.6954,14.1351,-1.5603
NaPb4,47.0138,47.4088,0.3949
Co4NiPd,22.4633,19.0188,-3.4445
H4Ru2Au,7.0674,9.3976,2.3303
YSi2PdPt5,62.8601,46.3704,-16.4897
Na(ScAu)2,20.7873,23.2736,2.4863
POsN3,40.4836,31.5712,-8.9124
AcY2Sn,38.6868,34.8102,-3.8765
YZnCl2,41.9993,40.3529,-1.6464
Cs2KDyBr6,13.8736,14.6605,0.7869
EuCuPb,29.078,30.7357,1.6577
NpNiAs,16.0013,17.0577,1.0564
Ga3Se4,30.663,25.494,-5.1691
Rb4H4Rh,6.1834,4.8996,-1.2838
RbSc(SnS3)2,37.2307,29.2663,-7.9644
Th3(NiAu)2,43.0136,46.1472,3.1336
NdH8Pd3,6.3916,7.5256,1.134
CsSr2Sn,17.8317,19.3686,1.5369
Th2Sn2H5,14.5606,16.6671,2.1066
Th2Sn2H5,19.0031,16.6671,-2.3359
Y2PuUP4,35.3488,31.5764,-3.7723
RbCuHRhSeS,28.1679,20.996,-7.1719
MgMnBi2,49.4451,46.1046,-3.3405
In4WCl,21.1198,22.2723,1.1526
Pu3Ga4,35.6747,36.3278,0.6531
YBiPt4,70.4272,54.4959,-15.9313
Cu2TcHg,27.0279,23.964,-3.064
PrInBi,18.2572,21.5092,3.252
La4MnRh,59.9123,44.4435,-15.4688
PmNd4Y2Sc,21.9738,21.9361,-0.0377
Y(AlH3)4,5.1915,4.2806,-0.9109
HfSc3Cr,41.057,30.3714,-10.6856
Nb(H3Ir)2,25.539,23.4804,-2.0587
Nd2ScMnS6,45.0445,36.0694,-8.9752
Nd2Ni3Ge4Os,19.4135,17.3899,-2.0236
In4Ga3,14.9725,16.2377,1.2651
Zn5CuNi6,6.6375,8.4687,1.8311
YNbNiOs,87.3347,76.9179,-10.4168
AlHW2,20.0394,25.0172,4.9778
MoWCSe2,45.1962,36.5645,-8.6316
SmNpSe3,39.4631,37.919,-1.5441
Hg2SeI2,17.4817,15.9632,-1.5185
Ba3AuBr,7.8397,9.6245,1.7848
NaHf2CrF,68.039,49.4161,-18.6229
TmSc2Ag,18.014,18.4616,0.4476
Hg3AuBr,7.6153,9.3145,1.6991
CsPdBr3,11.4973,12.4987,1.0014
YTiNO2,25.7349,22.9583,-2.7766
TiVP,45.1668,37.4285,-7.7383
Sc5Tc(SnRh)2,39.6012,31.1825,-8.4187
PmYSeN,47.7657,43.2151,-4.5505
Tb3AgC,17.7267,18.4231,0.6964
Ti3VP,20.9894,19.1549,-1.8345
Cs2PaIBr6,15.7139,17.8998,2.1859
NdYNiOs,58.0419,55.3392,-2.7027
SrZrSi,57.5409,45.2803,-12.2606
Na2SiBr,16.2379,13.8343,-2.4036
KBe2,2.899,5.0598,2.1608
TmSc4Ag,8.3641,9.6714,1.3073
NaLi2P2Pt,28.1634,21.6232,-6.5402
LaSc3Br,17.3504,14.3366,-3.0138
Ho(AlH3)2,3.8111,5.0301,1.219
BaNaLiTl,20.8275,20.0986,-0.7289
AlPtPb3,50.7623,46.0664,-4.6959
TmSc4Ag5,20.4738,18.8183,-1.6556
Y4AsOs,20.6788,20.8006,0.1218
Hf3GaC,90.2394,64.7973,-25.4421
Er10Ni28As19,23.4959,18.4616,-5.0343
Al2PtPb,37.1068,32.4068,-4.7
CeHAu3,28.625,30.6518,2.0268
RePW2,87.5613,80.2904,-7.2709
MnZn4P,22.5642,20.2469,-2.3173
NpH8Pd3,10.4188,11.3232,0.9044
Ac2PmScS6,45.2205,38.8694,-6.3511
Yb2SnRh2,31.9988,28.5489,-3.45
PtRh,69.2908,51.8598,-17.431
Sr2GdTl,26.7026,28.0229,1.3203
KRb3Cl6,4.6199,4.4154,-0.2044
YbSn2Rh,30.9224,29.3429,-1.5794
ScOs4Au,36.8162,39.8559,3.0397
ZrBe2Ag,33.7712,28.7224,-5.0489
Nd3NpNi34,9.1998,10.4482,1.2484
TmNpNi17,4.4804,7.4297,2.9494
YbSnRh,24.0906,23.8288,-0.2618
PtRh,70.3909,51.8598,-18.5312
GdNi3,0.0,0.9797,0.9797
Th2Ni2Au,37.7806,41.2508,3.4701
Rb2Cd2Cl5,5.7435,5.8502,0.1067
AgHPtPb2,45.2682,39.3762,-5.892
Zr2BeAg,57.7323,48.7627,-8.9697
Tm5(AlPb)2,24.4214,27.5652,3.1437
Tm3Ni2Sn3Rh,28.4639,24.9073,-3.5566
Hf2TaNi9,31.1972,26.5312,-4.666
PtRh,62.6991,51.8598,-10.8393
Na2MnV,71.8271,59.8348,-11.9923
ErThNi10,12.7484,14.7465,1.9982
Al2V5Mo2,79.8879,61.8222,-18.0656
Nb2AuC,89.9166,73.3853,-16.5313
Hf2Co3Re,57.2899,45.4485,-11.8415
Rb2LaBr6O,17.5131,16.731,-0.7821
Na3Y2TlO6,23.7139,20.5742,-3.1397
Co2Re2Pd,15.1315,20.2446,5.1131
VAs2C,46.7104,36.1314,-10.579
V3AsC,91.1768,69.24,-21.9368
CaZr2,61.8017,54.8463,-6.9554
AlTcAs,45.6813,37.4071,-8.2742
UB4W,8.7887,14.6271,5.8385
KAg3I4,24.3509,22.3626,-1.9883
YCdAg2,23.7217,21.7143,-2.0073
UCo4B,7.3192,11.2152,3.896
CaBeCo4,16.3496,12.0359,-4.3137
KCd2CoHg,11.3397,11.8164,0.4767
LiMn4Si,72.5501,58.2558,-14.2943
ReSbP2,43.8426,36.0587,-7.7839
ZrSb4Cl,47.2026,39.7953,-7.4072
CrBW,5.7317,13.2186,7.4869
SrZrTe2,48.2439,44.922,-3.3219
SbPOs2,33.5679,34.2584,0.6904
Pr5(Nd6Tl)2,19.655,20.5085,0.8535
SbPOs2,33.6792,34.2584,0.5792
Tm2Fe(PH2)2,14.3726,14.2723,-0.1004
PIrCl4,16.7031,14.3966,-2.3065
Sm2Ni2Pt5Au,48.8448,38.4608,-10.384
FeRuSe4,47.8628,35.7479,-12.1149
Ta3CN,32.3929,33.0759,0.683
Tl2Ge2Pb,34.7194,35.7976,1.0782
TlGaGe3,18.4212,19.1672,0.746
La2NiW,39.3224,32.7698,-6.5527
Ga2GePb,19.7784,21.2377,1.4593
FePtAu2,46.5218,41.5642,-4.9576
AgCO3,12.1295,6.7047,-5.4248
TlGePb2,41.4755,43.0802,1.6047
Tl4SiMo,39.9828,39.6063,-0.3765
MnIrRu4,38.0158,34.1396,-3.8762
BaCaRu4,12.028,14.4202,2.3922
LiHg4Pt,16.5329,12.4549,-4.0779
ZnCuPb4,38.0105,38.5716,0.5611
La2CoRe,31.3028,28.559,-2.7438
YScSb2Te,31.4928,27.7992,-3.6936
Er2BPd6,17.6276,19.4181,1.7905
BRu,1.8974,7.9736,6.0762
Y2ZnI,16.6081,16.1987,-0.4094
BiAsC,37.1169,30.9504,-6.1666
Ir4AuCl,38.6781,40.2414,1.5633
Ac2CrBO6,13.1366,13.9783,0.8417
PaCu2BO6,11.3181,10.1601,-1.158
Y2PBr2,20.1909,17.8646,-2.3263
Y2Al12Au7,24.0689,22.9186,-1.1503
V3SbC,89.8144,69.105,-20.7094
CsGa2GeOs,18.3799,20.064,1.6842
Tl4ZnNi,36.8578,37.5481,0.6903
Sr3SbCl3,26.4739,23.3352,-3.1387
CaReRu4,18.7083,21.7634,3.0551
NaEuGdGa,22.5301,23.2245,0.6944
YGaAs2Br,13.2862,11.7683,-1.5179
Hg4IrCl,8.4869,9.2414,0.7545
TePtBr3,35.2547,28.5734,-6.6813
HfThNi10,22.3084,20.3904,-1.9179
Al2Zn2Te5,25.4946,24.741,-0.7536
SbMo4Cl,21.0651,20.5769,-0.4881
Cs(TeP)2,23.1697,23.0423,-0.1274
Th3PtC,60.9458,55.1551,-5.7907
SiBiC2,42.3998,33.2998,-9.0999
Cu2P,7.4039,8.2291,0.8252
ZrSiOs2,48.9026,46.2963,-2.6063
Fe5NiAs,26.3629,21.532,-4.831
Ta4Os3,38.7091,42.5345,3.8254
LiPtN2F,21.3692,18.4747,-2.8945
Na2YErSe4,33.9535,28.5802,-5.3733
CoWI2,20.3051,21.4166,1.1116
Ta3Os,37.7863,43.3327,5.5465
Ta2AlAs2,21.8467,22.3604,0.5136
AlP2Se,31.0761,24.8595,-6.2167
Hf3CS,99.7945,68.1029,-31.6916
Na3YEr3Se8,35.8098,30.1562,-5.6536
TcAsIr2,47.7136,46.7427,-0.9709
TcAsIr2,47.5358,46.7427,-0.7931
TaOs,5.4468,19.6776,14.2308
TaOs3,5.7755,17.3495,11.574
La3MgAs,35.6981,25.9139,-9.7842
TaOs,27.9798,19.6776,-8.3022
Y4ErPd5,30.4257,27.2219,-3.2038
CoReNi,43.6757,38.6991,-4.9765
BaPr3Ir,5.6245,7.076,1.4515
LiNp2ScS5,42.9466,36.0175,-6.9291
Al5Ag3,13.6379,11.9825,-1.6554
BaLaB12,3.7783,4.5896,0.8113
PuInNi10,14.4392,14.6183,0.1791
Al5(ZnRe)2,22.1283,17.333,-4.7952
Pr3SmIn3,5.5613,8.8475,3.2862
CoRe2Ni,42.2965,39.8503,-2.4462
ZrAlW,47.289,44.6469,-2.6421
NbAg2C,67.9528,52.0778,-15.875
Sr4LiTc,25.5883,23.0262,-2.5621
ZrAl2W,35.6742,35.8557,0.1815
ZnCoPt4,66.801,46.8932,-19.9078
YPuTa,54.5143,50.9249,-3.5894
TlNi3Rh,25.3923,23.2785,-2.1138
Tb(NiPt2)4,58.7128,44.0999,-14.6128
TlNi2Rh,28.2691,26.5545,-1.7146
Y2BPd,66.4196,56.0837,-10.3359
CeNbNi2,50.0684,42.3138,-7.7546
ZrAl2W,35.6766,35.8557,0.1791
YNiAg2,57.2232,49.3161,-7.9071
Co4MoAs,14.4337,13.9618,-0.4718
ZrAlW2,44.7375,44.4649,-0.2726
SiAg4Ru,28.9938,22.6666,-6.3271
BeAsBr2,9.4185,8.3782,-1.0403
LiTh(AsAu)2,29.5681,31.9767,2.4086
Ac4CoAu,47.7256,49.0963,1.3708
CaY2Nb,45.024,35.8157,-9.2083
Y3Pu2TaN6,45.0067,41.7161,-3.2905
MoAu4Cl,37.2014,36.9601,-0.2414
SiRuRh4,45.771,33.5652,-12.2057
AlCuOs4,30.8784,32.5913,1.7129
CdRuBrO4,4.9716,3.9391,-1.0325
Co2MoAs2,16.5334,14.8975,-1.6359
Sr4ZnCo,16.8626,13.7659,-3.0967
NaSbN2,12.5925,13.2622,0.6697
CuTcBrO4,11.1854,8.9129,-2.2724
BeAs2Br,11.9182,10.3495,-1.5687
PmScRhAu,32.3346,29.8188,-2.5158
SmNi(TeO4)2,15.1901,12.5104,-2.6798
ScCu3Pb,28.8945,25.8324,-3.062
EuPbAu2,43.3097,44.9855,1.6757
CoMoAs2,14.9534,14.7528,-0.2005
Tl4ZnCo,41.5697,38.4288,-3.1409
BeAs2Br,12.1818,10.3495,-1.8322
Sm3PtC,25.1901,22.0003,-3.1899
Be2Re,6.673,15.0766,8.4037
Ac2ZrScS6,59.2625,49.5233,-9.7393
BaZrTa2,44.0921,42.7755,-1.3166
Tm3Tl3In,33.9869,36.0165,2.0297
NaSiAg2,22.9959,18.057,-4.9389
Pu2PbSe,60.522,59.5574,-0.9646
Be(AlMo)2,18.0509,13.9552,-4.0957
TbTm(NiAs)2,26.5929,22.9927,-3.6002
Sr5Cl,17.5039,17.3099,-0.1939
MnNbVNi,119.4117,98.6552,-20.7565
Th2NiGe4Ir3,31.5644,32.5264,0.962
Er2TmCdRh4,37.3137,30.9895,-6.3241
AcGa2Ni,16.8031,21.6108,4.8077
BaZr2Ta,59.2381,52.5531,-6.6851
CsZrN2,30.7683,30.0697,-0.6986
Na(Al2Ag)2,14.1737,12.3677,-1.806
Tm7TlIn5,27.836,28.9584,1.1223
Zr4AlTl,74.7756,64.5809,-10.1947
Y4BeTl,20.6961,19.9877,-0.7084
Zr(NbS2)3,78.2377,59.5422,-18.6956
AcNd(YS2)2,41.0228,34.5057,-6.517
Ga2BrO2,28.9056,23.7639,-5.1417
Na(AlAg)2,15.5798,14.0147,-1.5651
NaAlAg4,25.5921,20.8455,-4.7465
BeCr4Os,17.0801,14.0579,-3.0222
CdSbPb3,44.9195,43.7299,-1.1897
TbPbAu4,44.355,46.322,1.967
NaCa2Te,16.1165,16.9762,0.8597
ThB2Mo,20.6146,24.873,4.2584
Ti3PdC,9.8324,10.8085,0.9761
Cd3Au8,39.5116,40.608,1.0964
V3GeC,82.4276,62.9872,-19.4404
Na3ZrSb,44.6215,36.6942,-7.9273
CeAlSb,8.5183,10.9545,2.4362
BeCr4Rh,14.2688,12.2033,-2.0655
LaTaNi10,12.3751,12.8394,0.4644
Cu2SeCl,17.072,16.41,-0.662
CrTc2Pb,62.2928,54.6223,-7.6705
GaReTc,46.9485,44.7014,-2.247
Co2TcPt,48.6854,40.0049,-8.6805
CaTc2,56.7449,50.8278,-5.9171
BaAg2BSe4,31.4112,25.5348,-5.8764
K2CrMo,13.9064,12.603,-1.3034
K2Pm(OsO4)3,8.8912,11.9374,3.0462
Th3ZrSn5,37.6227,38.5819,0.9591
Ac4CoCu,51.0544,48.5709,-2.4835
Hf4CoCu,108.229,77.217,-31.012
MnPb3Au,61.5747,57.9554,-3.6194
LaCu4Si,16.1871,13.8012,-2.3859
SeBrO2,11.7984,10.4406,-1.3577
KSc4Tl,14.2626,15.3721,1.1096
Co2TcPt,48.7749,40.0049,-8.7701
VSbP2,39.4312,32.4551,-6.9761
YErTmTh2,35.9316,39.0816,3.15
Zr4TlCo,75.7965,65.4036,-10.3929
CoTc2Pt,70.2878,57.8172,-12.4706
K2BeC,18.3311,16.9253,-1.4058
YEr3(Tm3Th)2,34.8565,36.3756,1.5191
BP(Pd3Au)2,20.3214,21.8585,1.5371
KSc5,6.7469,7.9393,1.1923
ZrNiOs2,47.355,48.7348,1.3798
Y3Er7Tm,25.5387,27.2192,1.6805
LaThNi10,14.6319,15.1438,0.5119
HfSeNO2,38.9513,28.7732,-10.178
BaPm(AsPd)2,12.6212,14.3719,1.7507
Ca(CrTe2)2,32.7485,28.904,-3.8445
GaCoI4,14.985,16.8545,1.8694
Ca4Cr2Te,22.4911,18.808,-3.6831
Ca2CrTe,24.7654,21.9944,-2.771
Ca3CuAg,9.187,8.1537,-1.0333
BaAgAs,13.6244,12.4887,-1.1356
FeRe2,42.1636,38.0646,-4.099
BaMnAg2,40.5861,32.9099,-7.6762
Tl2CrSb,35.1303,34.8523,-0.278
KRu3Pb,25.2102,25.8742,0.6639
Ni4PtCl,20.275,17.3749,-2.9001
TlCu4Si,16.3833,16.1671,-0.2162
Sr4CrSb,19.8075,17.6383,-2.1692
Ce4InCo,14.95,17.6717,2.7217
Pu3Ni2(As2Rh)2,39.5419,35.0226,-4.5193
ScTl2In,29.5245,31.4963,1.9718
CaCuSnCl5,13.0021,12.2772,-0.7249
Li2PrYTe4,21.3997,20.6438,-0.7559
HoNbNi10,19.1419,18.2624,-0.8795
Sc2Tl2B,18.481,21.1302,2.6492
HfBi2IrRu,67.5097,56.0942,-11.4155
NaZrNi3,29.3506,26.328,-3.0226
La4Y2Pb3O2,48.3128,40.9218,-7.3911
TiCrC2,49.1557,41.0469,-8.1089
CuSiAg4,25.6614,20.352,-5.3094
Zn2BiW2,29.9965,32.6497,2.6532
TaIn4Cu,21.8591,22.6719,0.8128
U8NiIrOs2,56.7068,59.3194,2.6127
CoIrN2,59.6701,55.7729,-3.8972
CaSmAg3,21.6206,19.0506,-2.57
Ca3ZnHg,3.4992,4.1977,0.6985
AlCoBr,23.7274,16.3891,-7.3383
LaUNi10,14.939,15.38,0.441
CaVGeO5,20.4102,18.0696,-2.3406
YZrCuS3,49.1106,36.1127,-12.9979