Formula,E_hull_DFT (eV/atom),E_hull_ML (eV/atom),Delta (ML - DFT)
NaSiIr2,31.5962,31.3453,-0.2509
CdAgIr2,34.8301,35.3258,0.4957
Pm6Ga2Sb,18.0814,19.8522,1.7708
Tm6Ga2Sb,22.1804,24.224,2.0437
LiTb2Pa,30.3877,33.0896,2.7018
CdAgIr,31.9644,31.2243,-0.7401
Ac2NdGe3Pt4,53.0123,43.9148,-9.0975
Ho6Ga2Sb,20.5275,22.5344,2.0069
Sr6Ga2Bi,13.8556,15.7678,1.9121
Sr6Ga2Pb,13.7892,15.3903,1.6011
Sr2TlW,35.6713,29.7123,-5.959
SmSnAu,16.093,20.8689,4.7759
Be2SiPb,28.6187,26.0891,-2.5297
Y2MnTl,44.6448,41.4529,-3.192
Sr2TlW,38.6356,29.7123,-8.9233
BeSi2Pb,31.9647,27.196,-4.7687
NaEr4TmSe8,38.1286,33.5741,-4.5546
Ac2UP3Pt4,55.8067,46.6535,-9.1532
Sr2NbCl,48.0505,40.2825,-7.768
In(ReS)2,36.7841,33.4646,-3.3195
SrNd2Sm,22.1621,24.5688,2.4066
BaNi3S5,35.9054,25.4982,-10.4072
ReBi2S,52.4776,50.2309,-2.2467
Pr4Ga12Pd,9.6993,8.4504,-1.2489
ZrOs,70.286,9.8418,-60.4443
Ge3RuW,25.4565,23.0244,-2.4321
CrMo4Pb,20.9944,23.3614,2.367
LiRe2As,23.1363,25.9416,2.8053
CeNd4In15,20.5931,21.6905,1.0973
CrBiPb3,44.6222,45.0123,0.3901
Y5Ru3,21.4127,16.9007,-4.512
GeRuW,34.3079,31.4717,-2.8362
CoWBr,27.7872,25.5106,-2.2767
ReAgTe2,39.5171,37.1285,-2.3886
Nb2SiIr,78.3045,66.0762,-12.2283
Al2TlMo,19.1155,21.8915,2.776
Mg2PW,64.7654,56.545,-8.2204
LiRe2As,23.1118,25.9416,2.8298
AlTlMo2,31.4511,27.2368,-4.2143
ReSbP2,36.7246,36.0587,-0.6659
LaTbIn6,24.2137,23.5471,-0.6666
LiRe2As,22.829,25.9416,3.1126
YMnV3,100.3811,78.646,-21.7351
BeVNi2Pb,39.4464,34.5032,-4.9431
LiRe2As,23.2346,25.9416,2.707
CrAg3,21.9029,17.5341,-4.3688
Ce5Ga3,18.4035,19.7685,1.365
SrNbBr,43.6458,36.3006,-7.3452
Pa2ZnSi2Ir5,31.8411,32.9583,1.1172
NbBi3Br,64.6838,58.674,-6.0098
CoW2Br,30.0751,30.461,0.3859
Li2(AcPt)3,51.9494,44.0239,-7.9255
CrPPb3,54.0805,51.0734,-3.0071
TbPm3NdTh,26.8274,29.7348,2.9074
HfGa5Tc,39.53,31.9275,-7.6026
Cs(Tl2Au)6,48.2427,48.5769,0.3342
PrOsRu,27.608,31.7575,4.1495
In(Ga3Ag)2,14.8146,14.0783,-0.7363
SmAl2Au5,32.9395,34.7986,1.859
Y3MnTl,38.5043,35.7293,-2.7749
Ac6As(PtBr)2,53.8484,49.5804,-4.268
SmPdRhAu,34.2354,32.8817,-1.3536
YGaGePt3,44.7801,33.399,-11.3811
BaSrY2,34.1786,29.9972,-4.1814
Al2CoCl,16.8557,11.3418,-5.5139
Ba(ThGa3)2,20.8063,21.4587,0.6524
SmCuRhAu,31.716,30.6368,-1.0793
SiMoPt2,52.0874,39.662,-12.4254
CsSb(AuO2)2,33.414,31.75,-1.664
Ba(CdGa3)2,10.8513,11.165,0.3138
SmTmRhAu,37.2149,36.1449,-1.07
SmEuInAu,29.5304,31.7553,2.2248
TbCe4Sm,25.4125,26.9989,1.5864
Nd2(Ni2Ge)3,14.8088,13.0993,-1.7095
SiMoPt2,52.044,39.662,-12.3821
BaAlSn2F8,14.8655,13.923,-0.9426
Re2SiMo,30.7707,30.2271,-0.5435
SrTcPb2,53.4295,50.3651,-3.0644
Ac(CeGa3)2,17.7323,19.5047,1.7724
Ca2ZrAs,29.6844,27.2307,-2.4536
Ce2SmGa6,13.3077,15.2196,1.9118
YTm(MgZn2)2,11.3489,11.6927,0.3438
CrPBr2,32.6701,30.9223,-1.7478
YZrIn,45.358,40.8092,-4.5488
CrC2Br,45.8664,36.9495,-8.9168
Cs2UO6,11.8012,14.5671,2.7659
MgPaCu2,25.8577,24.7027,-1.155
CrPBr2,33.3118,30.9223,-2.3895
LiTbPuIn,30.9008,31.9032,1.0024
Re2SiMo,30.5504,30.2271,-0.3233
SmGa2Au7,37.0678,38.2406,1.1728
Ce(PaGa3)2,22.9574,24.8778,1.9204
InCoAg2Hg,18.8413,16.4614,-2.3799
La(YEr)2,22.399,23.0541,0.6552
TbAgAs2,13.8366,15.446,1.6094
CaMnV4(CuO6)2,44.3781,36.7968,-7.5814
BeGaSi2,16.6783,13.3066,-3.3717
Tl2CrAs,31.3658,32.0384,0.6727
La(PaGa3)2,25.9169,26.1275,0.2106
SmHfAu2,65.2546,56.4352,-8.8194
SmHoRhAu,36.6413,35.5755,-1.0658
SrMnRu,43.3995,38.4487,-4.9508
Ga2FeSe,19.0686,15.304,-3.7646
SiTeRu3,29.5854,23.6999,-5.8855
SmPtRhAu,52.1985,44.3404,-7.8581
CdSiSe2,32.7383,26.0786,-6.6596
BaCa2Pb,15.5236,17.2481,1.7245
CrNiW2,33.7419,35.7041,1.9623
RbNaAgI3,17.5218,16.1014,-1.4204
FeOsSe,42.8496,34.9582,-7.8914
Pu2InGa6,23.7954,24.7744,0.979
In2RuPb,27.514,29.1762,1.6622
TaPtSeBr2,41.635,33.9635,-7.6716
FeOs2Se,42.8278,37.2172,-5.6106
In(Ga3Sn)2,12.4984,13.429,0.9306
Ge2As2Se,29.3463,27.7323,-1.6139
NaPmPrSn,15.9993,17.477,1.4777
FeOs2Se,35.6307,37.2172,1.5865
Sr3CrMo,15.6589,14.1838,-1.4751
Tm2ThAl,32.5184,35.8138,3.2954
La2PuGa6,24.5378,22.8738,-1.6639
Ca(InTe2)2,26.2763,25.7765,-0.4998
NaNiBr,10.5434,10.7049,0.1616
ZrW2C,49.2498,48.152,-1.0978
SmRhAu,34.0571,32.1855,-1.8717
Na3AlPb,26.3284,23.9518,-2.3766
AlReGe2,39.3604,32.0917,-7.2687
CdPIr2,34.3088,33.153,-1.1558
BePCl2,5.5653,4.7024,-0.8629
Np4Ga12Pt,27.3934,26.8287,-0.5647
Er8GaP3S4,30.8709,29.3208,-1.5501
KHg2Br,5.0295,5.0356,0.0062
CaScPdRh,22.7154,18.8834,-3.832
ZrWC2,65.3587,51.9923,-13.3664
RbNa2CrI,18.5219,16.467,-2.0549
ZrWC2,65.868,51.9923,-13.8757
SmEuSiAu,29.5297,30.3617,0.8319
Sm(GaAu)2,26.682,28.411,1.7289
Nd(PaGa3)2,22.9094,24.9775,2.0682
Rb2CoCl6,0.2798,0.932,0.6522
La(TmGa3)2,17.556,17.8976,0.3416
ZrW2C,60.0437,48.152,-11.8918
Rb2NaLa,20.3613,15.628,-4.7333
Zr2CoBr,59.4795,49.397,-10.0824
Sm4Tl2Au,35.2692,37.2265,1.9573
TiSbOs,22.5273,25.8908,3.3635
Zr2CoBr,59.1863,49.397,-9.7892
NaCdAgPd,23.1063,21.3283,-1.778
Ti2Sb2Os,21.3649,21.9168,0.552
SiMoRu2,22.0714,19.2551,-2.8163
SiMoRu2,21.9568,19.2551,-2.7017
CrRuW,34.4429,30.7673,-3.6756
TbAgSnAu,30.9609,31.5918,0.6308
AcZnCuPt,41.5015,36.9568,-4.5447
FeSiRu2,32.4623,23.2155,-9.2468
CrRuW2,35.3922,34.461,-0.9312
Rb2CrP2,23.6392,17.7571,-5.8821
CrRuW2,35.4802,34.461,-1.0192
Cr2RuW,28.028,25.4764,-2.5516
NaNiBr,10.5521,10.7049,0.1528
SiMoRu2,22.2967,19.2551,-3.0416
NaTlZnAg,28.6374,26.4503,-2.187
BaSiTc2,50.8003,41.4087,-9.3916
TlCoCl2,12.5747,14.3447,1.77
Ba2SiTc,27.5895,22.3408,-5.2487
Er3Ga3Rh2,20.1292,20.7341,0.6049
Te2RhAu,45.5039,41.7091,-3.7948
La4NiPd3,32.6079,26.6155,-5.9924
Nd(TmGa3)2,14.5504,16.6345,2.084
SiMoRu2,22.0373,19.2551,-2.7822
BeP3Cl,7.3082,6.0792,-1.229
Er3In3NiRu2,20.2447,22.3406,2.0958
Tl2RePb,45.4993,47.8357,2.3364
PbBr2,27.6751,27.9407,0.2655
NaSi3Pb,25.5566,20.4729,-5.0837
CrCo2Cu,23.2903,18.6248,-4.6655
Tl(ZnGa)2,16.6375,17.7464,1.109
Cr(CuBr)2,19.217,16.2785,-2.9384
CrCoCu,28.3532,22.1452,-6.208
LaTeRu,36.95,33.1071,-3.8429
TaCdSeN2,23.1549,22.1511,-1.0038
TlZn2Ga,18.8105,19.974,1.1635
TcP3Au,30.8167,27.928,-2.8887
MgHg2,0.0,1.2316,1.2316
BaZn2Hg,2.2965,4.0907,1.7943
GdMgIn,16.8861,19.1098,2.2236
TcP2Au,37.0963,34.7288,-2.3675
Na2Mn(AgBr3)2,25.1145,22.7274,-2.3871
YRh3,40.3894,31.14,-9.2494
Tl2PbAu3,46.2272,48.2051,1.9778
Na2CdPt,37.095,29.7595,-7.3355
K(Pb2Au)2,45.1671,45.5191,0.352
Ac5TePt4,71.0798,61.6917,-9.3881
Cr2InNi,22.0067,20.7229,-1.2838
TlRePb2,50.0139,51.9295,1.9156
NaPb6,48.5994,48.5968,-0.0026
HfCrRu,46.1886,37.2065,-8.9821
RbTl2Cr,27.3589,28.164,0.805
CrOs2Rh,35.7601,28.2809,-7.4792
Tb3YN4,24.1977,23.9611,-0.2365
Be2PCl,4.206,4.1986,-0.0074
Te2Pb,45.5389,44.3604,-1.1785
SnPb,36.705,38.9113,2.2063
CaCuP,17.9037,16.0364,-1.8673
AlAgSb2,31.1145,27.1612,-3.9533
PmErTh2Bi5,51.043,52.4178,1.3747
Ba2ScTc,62.3929,51.3192,-11.0737
ReIrPb,46.3492,49.5567,3.2075
RbCrBi2,27.9573,29.0604,1.1031
CsPuUO6,7.0862,11.3009,4.2147
ZrFe2Cu,37.6305,31.9334,-5.6971
NdPuTlZn,38.6485,40.8204,2.1719
Zn2ReIr,40.0167,31.0507,-8.9659
Ca2AgBr,12.4343,12.0536,-0.3807
ZnReIr2,44.8927,40.6174,-4.2753
ReIr2Pb,45.6496,48.8571,3.2075
Zn2RePb,38.723,32.383,-6.3399
ZnReIr,45.2661,38.3398,-6.9262
CaPuZnSi,29.7088,28.217,-1.4918
Li(PmRu)2,20.802,20.6883,-0.1137
Dy3BiN,20.5877,25.2167,4.6289
Li2Y(PPt)2,38.6556,30.0717,-8.5839
Re3IrPb,45.2418,47.2911,2.0493
NaIr2Au,40.5173,41.6641,1.1468
Cr2POs,39.3626,37.9529,-1.4096
Re2IrW,40.4181,46.4803,6.0622
TbY4N4,56.9088,48.916,-7.9928
Sr(AgI2)2,23.2249,22.2443,-0.9807
Na3SiPb,28.6543,24.7913,-3.863
Sr2RuRh,34.5451,28.9907,-5.5544
PmPr2PtO5,9.4758,5.0884,-4.3874
BeGe2N,28.5808,24.7198,-3.861
CuGeP,12.7363,10.7009,-2.0354
TlGaRe3,37.7904,39.8783,2.0878
Ce4Ga12Ru,12.4208,13.4932,1.0725
BeCr2I,15.6029,15.7398,0.1369
Sr4TbTl5,33.0467,34.5944,1.5477
SiTe2P,29.7487,27.9088,-1.84
TbNd(HoTl)2,30.4975,33.0753,2.5778
AcPr2NdSm,16.9322,18.9726,2.0404
GaAsIr3,31.1001,32.9215,1.8213
Nd4Ga12Ru,12.3625,13.5669,1.2044
Sr4FeSe,25.7007,22.4403,-3.2604
PuNpZnGa,39.5612,41.6601,2.0989
BaCd2Co,13.7304,13.1621,-0.5683
YInTe2,24.9197,24.6658,-0.2539
Sr3SnBr,12.1604,12.6443,0.4839
Ag3CBr,35.059,26.1724,-8.8866
In6Sb2Rh,28.5597,26.0614,-2.4983
AsIrPb2,39.7052,43.3362,3.631
PuZnBi2,47.2604,48.6339,1.3735
MnGeP2,28.9231,25.4604,-3.4627
SrGdAl2,12.243,14.2896,2.0467
Ti2Si2Te,9.8009,9.9011,0.1002
Sm2Al3SiAu4,29.6813,29.7288,0.0475
YInTe2,25.2832,24.6658,-0.6175
Zr2Re2Mo,50.405,46.6688,-3.7362
AgW2C,69.2771,53.7563,-15.5208
MnV2GeC,85.177,65.4559,-19.7212
PrPu2As3,27.0705,29.1622,2.0917
TlAgRu,33.9757,32.6674,-1.3083
Cs2TcNi,38.6761,34.3169,-4.3592
SmGdAl2,14.6901,17.4928,2.8027
Pr2PuGa6,13.8723,14.7583,0.886
Pr2PaGa6,13.3452,14.3752,1.03
ZnSi2Te,20.9888,17.5209,-3.4679
Ac2P4PdPt3,41.9606,35.3601,-6.6005
Ta2SiMo,59.8372,51.3055,-8.5316
NaHoLuTl,34.3151,35.1835,0.8684
SmGdAl2,14.9449,17.4928,2.548
La2NbCu,58.3681,45.452,-12.9161
CsTcNi3,29.6458,26.4835,-3.1623
Sc(TcGe)2,71.6151,60.014,-11.601
Tl2GeSb5,42.0763,37.7882,-4.2881
Np4Ga12Tc,27.6735,27.9848,0.3113
KTl2Sn,31.3289,32.7284,1.3995
LiTa2As,20.9925,24.9306,3.9381
CuPb2W,38.4888,40.3418,1.853
TbHfGa,52.9347,42.7979,-10.1368
PuMg(ZnGe)2,18.2292,19.3722,1.143
Si2P3Pt,26.1069,20.7751,-5.3318
AcNd2SmEr,29.4711,31.6657,2.1946
CaYNb2(Zn3Fe8)2,21.2266,16.7144,-4.5122
Al(NiPt)2,32.9174,26.0688,-6.8486
Y3Pu5H12,0.0,0.5388,0.5388
Tl2CoCl4,17.3159,18.4179,1.102
Tl2RuW,49.6228,46.3467,-3.2761
LiLaInHg,19.7844,16.961,-2.8234
TlRuW2,46.3283,44.7617,-1.5666
SmAl4OsAu2,23.87,24.7788,0.9087
AgPPb,29.2802,28.3669,-0.9133
Co2AgIr2,19.7029,23.5337,3.8309
Tb4Ga12Tc,17.1083,17.4043,0.296
YCu2P,24.9396,18.8717,-6.0679
CeGdBi2,40.2076,42.6265,2.4189
Pr2AgPt,27.1999,20.8367,-6.3632
Ta2AgP,29.6235,29.2379,-0.3857
Ta2SiMo,59.9333,51.3055,-8.6277
YTmIrRu,29.9627,29.4246,-0.5381
Zr(NpGa3)4,28.0205,28.3076,0.2871
Ac2Ga6Ru,22.8631,22.8955,0.0324
LiTbSmBi,26.342,28.7197,2.3777
YP2RuS,33.5926,29.6654,-3.9272
Ac2PmPrNd,30.7409,32.6875,1.9466
La2Ga6Ru,18.7535,16.6296,-2.1239
RuPb2W,50.2041,48.9693,-1.2348
Sc2AlCu,21.1297,18.0334,-3.0963
Sc2AlCu,16.4452,18.0334,1.5882
Ag5Ir,33.595,29.4616,-4.1334
Rb2RuW,37.2118,33.2404,-3.9714
CeLuTl2,39.7917,41.6932,1.9014
AlV2P,81.7699,63.621,-18.1488
MoAs2Os,23.1656,22.6294,-0.5362
InAg2Ir,31.5915,29.7469,-1.8445
Na(TcNi)2,38.3852,34.8864,-3.4988
Tm4Ga12Os,15.0997,16.4446,1.3449
MoAs2Os,23.2121,22.6294,-0.5828
SiTcMo,40.9831,36.4643,-4.5188
LiTcAs,34.3627,30.0835,-4.2793
TiAl3Zn,6.073,6.4548,0.3818
Ag2Ru,27.3234,24.1678,-3.1556
RbNaTe2I,26.845,24.3311,-2.5139
AsOs2Pt,46.284,42.2837,-4.0003
AcDyYHo,33.5795,36.8116,3.2321
AcLa(GePt)2,51.2288,41.7873,-9.4415
Sm2NpGa6,18.4957,20.2997,1.804
SiTc2Mo,54.4731,46.627,-7.8461
Co2AgRh2,22.4753,18.9149,-3.5605
LiTa2As,21.103,24.9306,3.8276
MnNi2Ag,61.3869,54.0876,-7.2993
TlAs2Ru,26.7264,24.3064,-2.42
Sr(AcGa3)2,20.8566,22.503,1.6464
NdLu2Al,24.006,26.5766,2.5706
Tl(Ga3Sn)2,15.9393,16.7869,0.8476
SmAl4PtAu2,26.9777,25.5841,-1.3936
Na3Mn2P2(CO7)2,31.2217,28.276,-2.9457
Ac2Zn4Ir3Pt,42.2953,36.4411,-5.8542
Y2MoPS,45.6321,34.8877,-10.7443
Sr3VBr,37.9904,30.6922,-7.2982
Tm(NpGa3)4,24.0649,25.3194,1.2545
OsRuAu,36.0214,39.9051,3.8837
Tm4Ga12Re,15.0265,16.1192,1.0927
Pa4Ga12W,23.6899,25.2518,1.5619
U4Ga12W,24.1723,25.7882,1.616
YBeMo2,26.9911,18.8165,-8.1746
Ca3BCBr2N,1.3372,2.3736,1.0365
Cs2UAgO6,13.7181,14.4729,0.7548
Al2IrRu,20.2946,19.314,-0.9805
Nd2LuAl,21.5848,23.6343,2.0495
LiPaFe,38.4644,36.9403,-1.5241
TbGd2In,26.0401,28.6568,2.6167
LiTc2As,49.2088,41.7527,-7.456
Zr(AlGa)2,19.5217,18.928,-0.5937
AsRu2Rh,36.7952,29.3905,-7.4047
As2RuRh,25.8352,22.9636,-2.8716
CoAg2Mo,21.7091,20.026,-1.6831
Ac2MgIn6Ag,24.8721,25.9471,1.075
NiAg2Sb,33.2898,25.9676,-7.3222
NdEuTl2,38.366,40.3637,1.9977
Na(CdSb)2,28.1758,24.7896,-3.3862
Na3Ta(CuSe3)2,34.4607,27.852,-6.6087
SrLa2Br,33.7576,25.9171,-7.8404
Ac2Sn4Ir3Pt,42.5545,41.6935,-0.861
PmEu2Tl,33.075,35.0071,1.9322
K2YMo,27.2689,18.5298,-8.7391
BaZnCd,8.8511,10.138,1.2869
SiTc2Mo,53.8517,46.627,-7.2248
SbAsRu3,24.3151,22.3299,-1.9851
Si2AgPb,28.975,24.6749,-4.3001
NaMnCdSn2,38.0551,36.3896,-1.6654
BaEuAlTl,29.58,27.6661,-1.9139
Si2TcAg,38.8173,30.4954,-8.3219
SbAsRu,7.6965,24.6424,16.946
LiTc2As,49.2376,41.7527,-7.4849
Cd4CoAg,19.4937,19.3943,-0.0994
SiTc2Ag,58.1554,47.7028,-10.4526
AcEuTlBr,38.0984,39.6329,1.5345
Ca2SbBr,23.871,22.4807,-1.3903
SiBi3As,46.7861,44.2418,-2.5443
NaLiCuAu,19.6425,19.8051,0.1626
AlCo2Ag,24.1684,17.578,-6.5905
HfMoP2,41.7442,29.4762,-12.268
NiAg2Ru,22.3234,20.4543,-1.8691
RbCrW2,19.6141,22.2696,2.6555
Al2CoAg2,21.129,14.7873,-6.3417
BeCd2Re,50.334,40.3213,-10.0127
Sm4Si3Au,23.2323,22.4668,-0.7655
BeCdRe,60.018,47.7224,-12.2956
Ac4Ir2PdPt,55.7867,54.3588,-1.4279
BeCdRe,60.2196,47.7224,-12.4972
Er2HfGa2Rh5,38.4921,29.794,-8.698
LiTe2As,23.6259,23.1656,-0.4603
Pm2(GaIr)5,25.238,27.0732,1.8352
LiTlAs,20.3634,21.7674,1.404
Mn2CrRu,56.0548,47.3189,-8.7359
SiTe2Mo,31.4827,27.0938,-4.389
Be2CdRe,44.3807,35.9617,-8.4191
CsFeSb2,39.2219,33.1467,-6.0752
LiTe2As,23.5225,23.1656,-0.357
SmDy2(YHo)2,23.5798,25.8731,2.2933
Re2NiAg,49.5415,38.0571,-11.4844
MnCrRu2,35.2408,32.7015,-2.5393
AsIr2Br,27.7745,29.5483,1.7739
Tl2SiMo,33.9051,33.4907,-0.4144
CaNbGeTeP,45.0526,38.747,-6.3056
LiTlAs,20.4254,21.7674,1.342
Sm4AuSe3,34.9376,32.6086,-2.3291
Na2Sr2F,15.7728,14.1368,-1.6359
Re(GeSb)2,41.0598,34.9487,-6.1111
Re2GeSb,47.5739,42.905,-4.6688
Er(Tm3Fe)2,18.3641,20.828,2.4639
AsIr2Br,27.978,29.5483,1.5703
CsRbCdCl,11.703,11.7791,0.0761
YReSb3,39.1898,34.537,-4.6528
CuTe,13.4419,4.5812,-8.8607
Cr2Co2Tc,16.6747,16.4875,-0.1873
Tm6GaFe2,18.7332,19.7458,1.0126
NaPuBr3,19.277,20.8849,1.6079
Tb6InFe2,15.631,16.9202,1.2892
In2Ni2Sb,23.3343,20.9673,-2.367
Ge2BiSb,25.7857,26.3795,0.5938
FeAgSb,38.9644,31.7276,-7.2368
CoClF2,2.6809,4.9543,2.2734
LaSmFe4,12.848,12.7891,-0.0589
ZrTlAu,65.5844,61.3497,-4.2348
Sm2Ag,26.9681,27.1545,0.1865
Sm6InFe2,14.6442,16.195,1.5508
Ca2WBr,15.5328,16.7777,1.2449
LiAsW,17.7148,19.1011,1.3863
Co3AgAu,21.9064,20.6736,-1.2328
CoAg2Au,30.418,27.362,-3.0559
VRuSe3,58.5346,46.1207,-12.4139
CdSb2As,30.0151,27.475,-2.54
DyYHoPu,35.5849,38.3775,2.7925
Na2GeBiAu,32.5775,31.2112,-1.3663
Ti3ZnPb,15.515,17.6824,2.1674
Sm7Ge5Au,20.121,21.7034,1.5824
Co2AgAu,20.1371,21.2081,1.0711
Sm2RhAu,35.842,34.8202,-1.0218
Y4AsPS2,30.4052,27.1286,-3.2767
Pr3Pb,9.2077,11.29,2.0824
YB,0.0,59.9825,59.9825
La3Pb2,46.4834,40.2941,-6.1893
YB,51.9185,59.9825,8.0641
Sm4InAu2,30.207,32.7415,2.5345
Sm2Al4GaAu3,20.5375,22.1277,1.5902
Mn3AlBi,71.8531,60.0215,-11.8316
CeY2Pu,31.3106,33.2382,1.9276
Sm3InAu2,30.8906,33.326,2.4354
Sn2GeIr2,21.485,25.6628,4.1778
CdRuC2,36.1966,28.8695,-7.3272
Zn2CrSb,18.9839,16.1367,-2.8472
AgRuAu3,39.3018,38.2997,-1.0021
AgRuAu2,36.2847,36.1787,-0.106
AcZn2PdPt2,45.7451,38.1142,-7.6309
Sr(DyS2)3,35.8057,28.2946,-7.511
NaAlIn2Te,22.3237,20.9846,-1.3391
Tl4CdPt,52.4474,48.6594,-3.788
Ac3CuB2Pt9,69.2078,52.4764,-16.7314
Co2SiAg,14.7271,13.7,-1.0271
TlAgRu2,30.1785,29.5604,-0.6181
LiZrAs,35.8676,33.1389,-2.7287
KRePt,42.3539,36.6829,-5.6709
CuPt2W,55.9072,45.7826,-10.1246
ScUSn,34.4923,32.7188,-1.7735
Tl2SnRh2,39.4217,35.4852,-3.9366
Sm4Ga12Fe,12.8544,13.194,0.3395
CsLi2InAu,19.2925,19.0168,-0.2757
ErTmGaRh,28.6149,27.4671,-1.1478
BaLiAu,18.5131,18.7738,0.2607
AgRu2F,14.2016,14.8394,0.6379
SiAgTe2,32.9565,28.3649,-4.5916
Sm2Al2Pt5Au,48.3352,38.0344,-10.3008
Li2AlRh,15.9622,12.3821,-3.5801
LiCeGd,18.3972,20.8925,2.4952
NaCeN,10.3126,13.3342,3.0217
GePBr2,6.6613,8.3955,1.7342
Sm(ZnAu3)2,32.7858,34.3787,1.5929
U4FeRh12,50.3194,40.2765,-10.043
LiTiIn,10.0311,10.648,0.6169
Ba(FeAs3)4,25.4978,22.0753,-3.4225
Tl2CdTe,38.3522,40.7285,2.3763
Li6MnBr8,26.5678,23.8288,-2.7391
AlRu2Rh,31.8934,28.5201,-3.3733
Cs2UTa2O7,26.193,19.9128,-6.2802
ZrMoRu,46.1464,42.051,-4.0953
ReIrSe,44.724,44.9975,0.2734
SnBiP,26.439,27.9207,1.4817
Y2P,28.0518,23.651,-4.4008
Sm2GaAu6,37.4204,38.8125,1.3921
Ce2PrGd,18.8155,21.8539,3.0384
TaCd2Co,41.8807,33.5123,-8.3685
La6ZnFe2,30.847,21.7528,-9.0942
LaInNi2,15.439,15.3244,-0.1146
Co2AgOs2,18.4727,23.0314,4.5587
Mg2InSb2,19.8443,18.4802,-1.364
Er2TiGa2Rh5,24.9638,20.6865,-4.2772
Pm2ErTmSe5,37.7101,32.8722,-4.8379
ScAsRhS2,45.728,34.6558,-11.0722
Er6ZnFe2,16.0221,18.1455,2.1233
CaY2PPb,32.0795,26.7731,-5.3063
ReTc2Te,67.4346,60.6132,-6.8214
Mo2RuRh,26.5988,26.4946,-0.1042
Tm4Ga12Ag,14.5241,15.1525,0.6285
ZnSn2Bi,26.1118,25.6837,-0.4281
Sm(GaAu2)4,33.5247,34.8209,1.2962
LaU4In15,31.0974,31.5024,0.405
SbRh2Cl,36.8933,28.5745,-8.3188
SiNiAg2,20.9001,17.1146,-3.7855
CuGe2Pb,19.9044,21.7678,1.8634
Ag3TeAu3,38.0671,35.2886,-2.7785
DyY2(HoRh2)3,35.3253,29.0949,-6.2305
TaAg2Rh,37.4171,33.4501,-3.967
Sc2AsRuN,38.0512,31.441,-6.6102
LiHfCo2,39.7066,30.6502,-9.0564
SbPAu,32.2302,31.2241,-1.0061
Ho4ErSn2,26.6897,28.2182,1.5285
Zn2GaFe6,7.3921,6.1326,-1.2595
Pm8Er3Sc2,23.9434,24.3708,0.4274
AgTeAu2,42.0427,40.5578,-1.4849
Ag2TeAu,38.1433,34.8609,-3.2825
TlGa3Re,24.9101,25.7762,0.8662
TlIrBr2,29.3677,31.0717,1.704
SnTeBr2,21.3902,22.0127,0.6225
ErTmTlAu,38.9272,41.38,2.4528
In2Ga2Sb,17.2648,17.0629,-0.2019
Na2AlCd,17.9531,16.3768,-1.5762
Hf6Cd2Fe,100.0424,72.4685,-27.5739
ZrSb2Mo,50.8695,44.7947,-6.0748
CsBaLi2In,12.3516,11.9254,-0.4262
CsScMnBe2,30.8623,24.7247,-6.1376
RbZr2Re,54.6245,48.5885,-6.0361
Cs2CoTcBr6,23.3105,20.7424,-2.5681
Na2SrCaI6,19.8871,18.8891,-0.998
Fe(Co3Pt)2,31.8855,24.9448,-6.9407
Y2GaP,17.6702,15.6641,-2.0061
ZrTaMo,50.606,49.523,-1.0829
TbNdRhAu,36.1682,35.1102,-1.0581
Sr2YAl2,18.1148,15.6112,-2.5036
TbPmBiAu,37.6613,40.3095,2.6481
AsOs3Ru,34.2024,34.645,0.4426
CuAsBr2,13.2153,13.2354,0.0201
Nb2SbAu,93.8209,78.0227,-15.7982
AsCI2,28.1507,23.4801,-4.6706
Si3P2Pd,10.6206,9.29,-1.3306
Y2CrGa,26.9579,23.5507,-3.4072
SrTcN3,0.0,12.9957,12.9957
TlIrBr,35.911,37.1877,1.2767
Co3BiRu,19.7952,21.1528,1.3576
TaSeI2N,28.4909,25.5364,-2.9544
InBiP3,18.0397,18.8513,0.8116
NaCaTl2Pb,33.9865,34.5441,0.5575
TiAlCu2,2.977,4.7229,1.746
AcTlTePd,43.4004,44.6238,1.2234
TaSeIO2,35.1917,30.0255,-5.1662
Ti2Al4Cu,6.2755,6.4519,0.1763
CsCuTe,13.8118,15.4884,1.6766
CuNiMo,32.6754,29.4912,-3.1841
VBRu3,37.5786,32.7615,-4.8171
CaIn2Si,19.9384,17.6431,-2.2953
GdScMnCu,50.8842,42.5801,-8.3042
TbCe2(AgSn)2,25.4372,25.5329,0.0957
BaLiLuIn,15.344,16.603,1.2591
NiAgOs2,30.9303,32.4414,1.5111
SrAc(GaPt)2,44.7335,37.6602,-7.0733
Rb2ReMo,20.7611,17.4976,-3.2635
SrAgGe,7.5453,8.7374,1.1921
BaZrSb2,46.6796,40.9079,-5.7717
Y2GaSn3,25.5851,19.6621,-5.923
Sb2AsRh,32.173,27.5001,-4.6729
CoCuBr,29.6113,22.9078,-6.7035
AlTl2Te,36.7734,36.8614,0.088
Rb2NdPaTe4,31.8956,31.6715,-0.2241
TbTl(InI3)2,24.6442,25.8449,1.2008
AlTl2Te,36.8077,36.8614,0.0538
Al(H2Pd)6,5.841,6.6284,0.7874
GdPt,24.2699,38.4078,14.1379
Ca2InSi,15.9566,14.5292,-1.4273
Co2CuBr,29.6446,22.0892,-7.5553
Pm4Ga12Ge,11.8249,12.916,1.0911
TlIr3Br,41.0502,41.911,0.8607
CuPCl3,8.515,6.6811,-1.8339
KZnFe2,7.529,6.6024,-0.9266
CaTaSe2Br,47.6335,38.8936,-8.7399
AsPCl,17.5347,15.5324,-2.0024
Cs2TiAgO4,6.3823,7.4748,1.0925
Sm4Ga12Ge,11.8844,12.9792,1.0947
Cs4AcTa3O12,22.9096,18.1984,-4.7112
CuTePt,46.2492,38.2635,-7.9857
TcIrPd,26.834,29.4475,2.6135
PbI,30.4035,31.7668,1.3633
YNi,76.5798,70.3354,-6.2443
HPb2ClO,21.4133,22.633,1.2197
P2PtI,27.6446,22.4456,-5.199
Al2GeP,30.9808,24.5718,-6.4089
Sr3Al9Ag2,9.297,9.2583,-0.0387
Y2Tm2Sc,14.561,18.4521,3.891
Hf2ZrS,110.3771,81.774,-28.603
K2TlCuBr6,12.597,12.5711,-0.0258
AcSm(SiPt)2,48.611,39.4219,-9.189
Tl2CoAu,40.2884,40.425,0.1366
CaY2Cu,27.799,21.6228,-6.1762
LaTh2Al9,17.2018,17.7293,0.5275
KZr2Ag,60.5922,50.8227,-9.7695
Sm2Y2InGa4,15.2055,15.6195,0.4139
PmPb,33.4959,38.2243,4.7284
LiSm2Re,22.7658,26.1205,3.3548
NbSb2Se,70.3359,57.3244,-13.0115
Cr2GeBr2,31.7518,28.2181,-3.5337
TaPSeN2,31.8044,26.5873,-5.2171
NaTlCdRh2,39.4244,32.8132,-6.6112
Li2InSe,17.9343,14.5462,-3.388
ErScInRh,26.5,24.4193,-2.0806
Sr3PmSn3,14.1674,16.7003,2.5329
Tl3FeTe,39.8816,39.3746,-0.5069
MnBeTc2,71.8162,60.8245,-10.9917
La4Ga12Au,20.3026,17.6888,-2.6137
CuPbSe,36.1811,34.5456,-1.6355
LiInSe2,30.0362,24.6058,-5.4303
SrTcO3,0.0,1.8965,1.8965
KReSi2,21.3624,19.1047,-2.2577
YTlRe,35.6437,38.2364,2.5927
K2RbTl6Pt,39.6387,37.336,-2.3027
Sr2CaY,16.6235,14.628,-1.9955
CaZrHg3,20.7169,18.0638,-2.6531
LiInSe2,30.2774,24.6058,-5.6716
Er6FePd2,17.5637,19.808,2.2444
SrCaY2,18.9237,15.3946,-3.529
Ac3La2(PrTl2)2,44.3714,42.7145,-1.6569
NaRe3Rh,42.2518,39.3602,-2.8916
Tb5(Er6Zr)2,36.0645,35.4927,-0.5718