Formula,E_hull_DFT (eV/atom),E_hull_ML (eV/atom),Delta (ML - DFT)
ZrSbBr2,48.7891,42.3379,-6.4512
LiScPbAu,26.1799,28.0737,1.8938
ZrSb2Br,57.436,49.161,-8.275
Np2Sn2HPt2,51.4576,45.7143,-5.7433
BeAlTc2,58.468,47.0468,-11.4213
Li2TiAu,15.5702,12.1651,-3.405
Li5PbAu4,23.9415,25.055,1.1135
Rb2Sn2Ru,27.2675,24.5581,-2.7094
LiLa3Ru,35.1577,25.4515,-9.7062
Be2AgPb,22.7529,21.0631,-1.6898
SrB3F,8.5707,8.1491,-0.4216
Hf2Ni3Pt2,68.7691,50.2613,-18.5077
CaDy2Rh3,14.9613,13.3759,-1.5854
YZr2Hg,61.7232,50.4999,-11.2233
CaSm(ZrAs2)2,25.5436,24.1276,-1.416
GdAsRh,0.0,1.7099,1.7099
Li2AcCdIn4,21.446,21.6045,0.1585
Ca3Cd2InAu3,23.284,24.6062,1.3222
Be2AgPb,22.7395,21.0631,-1.6764
Cd(SbRu)2,22.8292,22.2,-0.6292
RbZn4Cd,8.7809,9.2085,0.4276
Li2ZrNbAu,58.1178,50.0153,-8.1026
Li(NbAu)2,70.0353,62.9791,-7.0562
Pr3Se5S12,31.6319,20.1492,-11.4827
Y4Hg2N,38.7732,30.5787,-8.1945
TaBiTePb2,48.9348,49.1428,0.2079
La2Pr2Ni3,24.3538,16.5856,-7.7682
NiAgTe2,26.6724,25.6,-1.0724
Y(ThSc)4,33.2018,36.4392,3.2374
LiIr2Au,33.706,36.9884,3.2823
YbBiO3,0.0,3.3508,3.3508
LiMn2Au,61.8367,46.3009,-15.5358
NbB4W3,32.2546,32.3224,0.0678
LiCeEuAu,24.9887,26.9752,1.9865
LiLuRhAu,31.9627,30.2966,-1.6661
YSi2Hg,26.0256,21.052,-4.9736
LiRhAu2Br,39.3914,35.3511,-4.0404
Li3MoAu,13.4869,14.1919,0.705
Sr2TiC,25.5352,20.96,-4.5751
LiRuAu2,27.926,29.6513,1.7253
Sc2Bi4W,38.6968,40.2675,1.5707
Cr2RhN,33.8714,26.3222,-7.5492
Re2Ni3Rh2,50.1534,34.8039,-15.3495
K2CuTc,31.7442,27.1171,-4.6271
LiEuAu2,30.2505,31.4377,1.1872
Li2ZrFeAu,43.404,37.4463,-5.9577
Ac2NdLu,46.9256,49.5992,2.6736
FeNi3I,27.387,22.5733,-4.8138
InCu2Tc,31.8234,28.9208,-2.9026
CaTlCrSe2,49.8407,40.3979,-9.4428
Sr3BPd,12.354,13.2674,0.9134
BeBiPb3,43.6705,43.9498,0.2793
InCuTc2,53.1516,46.4419,-6.7097
AcNdLu2,39.1317,41.163,2.0312
Zn2FeTc,31.1277,24.9287,-6.1991
LiCu2Au,11.9778,14.3736,2.3958
Cs2SnSb2,28.6063,25.6138,-2.9925
YCuHg,23.78,18.6086,-5.1714
Li2TeAu2,23.9445,24.8709,0.9265
CsSnSb,26.2815,24.7032,-1.5784
Fe3Cu2Pd7,24.093,22.2158,-1.8772
Li2AlIr,14.6069,14.9587,0.3518
CaTbGdHo,22.4623,25.1775,2.7152
BeRh3Pb,41.689,32.601,-9.0879
HfCoBi2,59.3571,52.6456,-6.7115
Nb2CuBi,80.1922,75.2419,-4.9502
HoPa2Nb,76.4143,73.4714,-2.943
Zn2FeTc,31.1404,24.9287,-6.2117
Te2PbAu,46.1409,45.9596,-0.1813
CaPrGa2,5.8888,6.7735,0.8847
Na4CdSb,24.9416,20.9941,-3.9475
AsAuC,35.3933,30.0923,-5.301
Sm3Fe7Co2,15.3512,14.2337,-1.1176
Re5Os3,40.5516,46.3485,5.7969
NaCdSb2,33.301,27.2056,-6.0953
Ba2PbC,24.9981,22.9791,-2.019
Th11Co4Hg9,30.8911,32.7016,1.8104
NaCd3Sb2,26.3961,23.2892,-3.1069
Y2NbHgSb,58.4806,45.429,-13.0516
AgSb,34.8446,28.1189,-6.7257
Te2RuN,45.2017,41.4779,-3.7238
RbSnSeBr2,17.9248,16.1679,-1.7569
LiPC,17.679,10.0249,-7.654
La2VRu2,45.4081,35.7409,-9.6672
Rb2CuW2,18.6329,17.4769,-1.1559
Zn2FeTe,18.5155,15.4,-3.1154
GaAs2CBr,21.0095,16.9889,-4.0206
SrY2Hg9,9.0238,7.0794,-1.9444
GaFeC2Br,34.8052,24.2984,-10.5068
K3La,22.2219,17.2959,-4.926
GaPdBr2,15.0078,14.6792,-0.3287
Pm2NpScAs4,25.7771,25.341,-0.4361
Hg2Sb2Pd,19.467,16.3398,-3.1273
ReIr2Pt,54.1556,50.7494,-3.4062
RbCa2Al,3.8578,5.0195,1.1618
GaNiAs2Br,17.0649,14.7139,-2.351
Rh(SeI2)2,34.1973,29.7117,-4.4855
Y2Hf2Hg,71.3898,50.1401,-21.2497
Sc2GaAsBr,19.2949,14.9758,-4.3192
GaAsPbBr2,24.6976,21.8432,-2.8544
Sr3Mn2(CuP2)2,26.871,21.9451,-4.9259
Tm2BeSi4Ir3,28.6189,26.6762,-1.9427
GeRuPt,31.4883,27.274,-4.2143
NaScTi,20.4774,17.4559,-3.0215
LiHf3V,112.8715,80.884,-31.9875
GaTeI2Br,21.9957,21.9221,-0.0736
Ga2PAuBr,23.3172,21.2688,-2.0484
FeAsSe2,46.777,38.3039,-8.4731
Ir2W,41.5864,48.1568,6.5704
SrYHg2,15.6666,13.0504,-2.6162
Er3(PbO)2,26.027,27.73,1.7031
CdTc3Ni,63.6793,52.5655,-11.1138
Ac4NiPtAu2,55.3044,53.5603,-1.7441
Ga2TeCBr,27.4602,22.7951,-4.6652
Sb2TeRu,20.6143,19.7482,-0.866
EuGaBr2,14.143,15.6279,1.4849
CdGaTeBr2,18.3737,18.2019,-0.1718
Ga2TeBr,17.4693,17.747,0.2777
RhPb3N,42.5759,40.0802,-2.4957
Zn2FeW,18.0567,16.9465,-1.1102
Sr2YHg,16.978,16.5169,-0.4611
Yb3ZnIn3Si2,22.2989,21.8559,-0.4431
Ga3IrBr,17.3315,17.8667,0.5352
Ca(YHg4)3,9.2801,7.0508,-2.2293
RbSnSe2N,32.4743,27.0395,-5.4348
Tl3PI,38.0006,36.7285,-1.2721
TaGaBr2,37.88,32.1575,-5.7225
Cd2GaBr,14.4251,15.2957,0.8707
FeTcCl2,29.007,24.0067,-5.0004
MnBeCu3,28.7175,21.9935,-6.7241
MnBeCu,41.0589,31.6294,-9.4295
MnBeCu2,32.4911,25.4388,-7.0524
MnCrTc2,64.8903,54.1591,-10.7312
YGaBr,0.0,2.51,2.51
ScGaAs2Br,19.1422,15.4852,-3.6571
BeGa2SiBr,17.6076,14.8219,-2.7857
CdGaSiBr2,13.402,12.3771,-1.0249
FeAg2Sb,33.0909,26.4035,-6.6874
ZnPtO2F,33.1398,23.518,-9.6217
PdCSe2,44.3223,35.5946,-8.7277
Na2PaSe4,38.3098,33.9992,-4.3106
Ac4AsPtBr2,46.9881,44.6127,-2.3754
Ca3U3BeN8,20.1943,20.6968,0.5024
Sm3HoTm6,24.4703,27.6326,3.1623
ScSbBr2,26.166,24.1522,-2.0138
RbBa2Cr,4.7898,4.3313,-0.4585
YbZnBi2,34.5306,36.8954,2.3648
CsRb3Ru,29.1617,24.7102,-4.4516
Sc2Sb2N,17.5335,14.1741,-3.3594
TiAgI2,17.3229,16.8042,-0.5187
AgSb2Br,40.9092,31.9228,-8.9864
Sc2SbBr,23.6826,22.6065,-1.0762
LiInIr2,28.0674,29.2762,1.2088
HfTe2I,62.2655,52.2189,-10.0466
ScSbBr2,26.0817,24.1522,-1.9295
Nb2SeN2,56.9397,48.8027,-8.137
SrY3Hg2,23.281,17.9404,-5.3405
CsMgCu2,13.1144,11.1537,-1.9608
Zn(CdSe)2,26.2045,23.403,-2.8016
Rb2Sn2Se2O,32.9313,27.478,-5.4533
CeNd2N2,14.1019,16.4016,2.2996
BaLaSc2,15.7346,13.3813,-2.3533
CsSnTe3,30.8972,30.5357,-0.3615
AgPd2I,22.6627,22.1097,-0.553
BaLaSc,19.1629,15.1822,-3.9807
Ac2HgN2,26.2175,26.6689,0.4515
Ba2LaSc,14.4701,11.3664,-3.1037
SrY5Hg6,21.6501,16.1532,-5.4969
CsSnTe3,34.0506,30.5357,-3.5149
HfSc2I,44.5662,35.2359,-9.3303
SrGaSn,3.3076,9.0441,5.7365
Li2GdSc,9.6686,11.0736,1.405
HgSb2,29.9993,23.5536,-6.4457
LiScMn,36.1112,28.6847,-7.4265
AlAgC,26.9425,20.3602,-6.5824
Si2Ru2Rh,25.8,18.9076,-6.8924
Mg(CuGe)2,7.1432,6.8112,-0.332
PrHoSe2Br,20.2734,18.2609,-2.0126
CdGeRu,10.0614,14.3169,4.2555
CuMo2Ir,27.2753,24.6923,-2.583
Ca2YHg9,4.4896,3.8862,-0.6034
La2InI2,29.2311,23.1767,-6.0544
TaAsRh,31.924,29.9532,-1.9708
NdEu2Al,21.2472,22.6615,1.4143
ScCu5Au8,34.229,33.868,-0.3611
Ta2PbW,41.6201,45.9643,4.3442
NbCr2I,40.1792,34.1557,-6.0235
ScCu2Re,36.6375,30.1245,-6.513
NaTeC2,44.4836,33.958,-10.5256
PrNdSm2,17.484,20.6777,3.1938
PrTh2Au,43.5062,47.0432,3.537
BeCd2In,15.7244,16.3247,0.6003
BeCdIn2,16.033,16.264,0.231
YTlHg,33.597,30.1312,-3.4657
Tl2Sb2Au,44.9684,41.9464,-3.0219
RbRuSeN2,40.1254,33.4875,-6.638
OsRuSe2N,51.4409,44.3729,-7.068
MnCrRu2,35.2369,31.7861,-3.4509
CuOsRu2N,38.9861,35.4825,-3.5036
GaRu3S,23.971,21.9504,-2.0206
PRuN2,46.1031,39.2657,-6.8375
Pm2PrLu,19.6035,21.6855,2.082
ScTeP,45.6736,37.2419,-8.4316
CsBa3N,5.0887,5.8444,0.7558
SnRu2N,38.9515,36.4438,-2.5078
RbCaTh2NiS5,36.4565,32.0321,-4.4245
SrSn3C,27.792,24.1912,-3.6008
GeRuN,34.1676,32.1853,-1.9822
TmZn2Co2Ge,20.4352,14.5675,-5.8677
K3Te,18.9436,17.9429,-1.0006
Sc2V3Ge4,37.1013,26.5494,-10.5519
POsRuN,40.0586,37.725,-2.3336
K3Te,18.9685,17.9429,-1.0255
Li2ScMn,27.3891,21.8863,-5.5028
TbNd2SmEr6,23.3199,26.0466,2.7266
ZrSbW,60.8011,54.2512,-6.5499
TaRuI2N,40.2931,36.9469,-3.3462
BeAgPb2,35.2297,33.6952,-1.5345
TaCoMoOs,49.4151,39.5056,-9.9096
TaCr2RuN,53.7229,41.6284,-12.0945
Ta2RuRhN,49.6036,43.9289,-5.6747
Ta(SO)2,25.7592,21.6209,-4.1382
Cs2BPd,15.9611,17.2147,1.2536
Ho3Cr2Pb3,32.4768,33.3397,0.8629
FeGeRu2N,44.1574,34.683,-9.4745
TaZnI2,23.3023,24.0624,0.7601
Ta3SiI,31.9395,31.9388,-0.0007
LiSc3Mn,23.5073,19.5771,-3.9302
Ge2BiPb2,31.8896,33.3951,1.5055
Ta2PtAu,52.2794,48.9604,-3.319
ZnFeAu2,27.6179,27.5674,-0.0504
Y2CuHg2,20.8046,15.5142,-5.2904
Cu(MoOs)2,27.153,25.9432,-1.2098
La2TlI,43.6973,36.4246,-7.2727
TaPtAu2,55.2504,50.9103,-4.3401
HfSnRh,70.4977,53.2486,-17.2491
Be2ZnFe,16.8361,10.4117,-6.4244
Ni8Pt2W3,31.0944,24.8354,-6.259
HfSnRh,62.8066,53.2486,-9.558
SiRu2Se,23.8148,19.3813,-4.4336
Tm3Cr2Fe7,16.5539,14.9647,-1.5891
In2GaPb2,27.8116,29.3231,1.5115
Be2ZnFe,16.8897,10.4117,-6.478
Be2ZnFe,17.0255,10.4117,-6.6137
Ir(IO)2,47.3776,40.6199,-6.7577
BeZnFe2,13.0343,9.0178,-4.0164
CoGeBi,7.983,13.8441,5.861
Tm2Cu3Ni2,13.1171,14.8752,1.7581
Cu3(NiAu)2,18.2023,19.8583,1.656
Ba(ZnSn)2,8.7154,10.7306,2.0152
BeZn2Fe,13.5192,10.2868,-3.2324
LaAs3Ru,23.3321,16.9891,-6.343
Tb2Cu3Ni2,11.9961,13.7192,1.723
Ge2SeI,19.1226,18.4659,-0.6567
SrCrFe,25.5715,19.1316,-6.4399
Gd4CoPb2,36.1618,35.9385,-0.2233
CsZrSc,30.4404,27.2345,-3.2059
SrPCl,3.3503,7.8995,4.5492
NaTbInPd,21.8134,22.4224,0.609
BeZn2Fe,13.5391,10.2868,-3.2523
Cu2IrBr,20.8407,21.3506,0.5099
EuNpPt2,68.6795,56.9556,-11.7239
Pr11Tl9Cu4,18.7337,18.9995,0.2658
Sm11Tl9Cu4,31.3166,32.6786,1.362
InCo3Te,16.9769,17.8115,0.8346
RbTlS4,46.2429,36.1003,-10.1426
ScTc2Au,96.9889,82.14,-14.8488
PtRhS4,60.6456,43.7831,-16.8625
IrRhS4,53.1911,40.0495,-13.1416
CsNpRhO6,7.9807,10.5451,2.5645
BaSbS4,40.2968,29.1187,-11.1781
AcTe2Pt,59.2364,52.326,-6.9104
Ca2ScCr,15.2713,11.0829,-4.1884
Ac2TePt,64.2274,58.0595,-6.1679
TbPm6NdSm2,20.5007,23.1995,2.6988
Sm3GeSeBr,17.375,19.1441,1.7691
LaZrFe4,25.01,21.5307,-3.4793
Pm2RhN,24.2765,23.4578,-0.8187
LuAl3,6.0022,9.9206,3.9184
Sr2GaTc,28.6811,27.0285,-1.6527
NbRuBr2,50.5131,42.9144,-7.5986
Ce2PrSc,12.7386,15.8671,3.1285
LaNi3Se,24.8447,19.8376,-5.0071
Ga3GeIr,15.7124,17.1852,1.4729
YCuHg2,17.687,14.1245,-3.5626
La2Pm2YCd5,22.81,21.2409,-1.5691
Pm3RhPb,34.8161,33.065,-1.7511
InSnAs3,14.8665,15.3978,0.5314
Ac4NiPt2,62.8494,55.7917,-7.0577
ScAgMo2,25.6597,24.7435,-0.9162
Be(FeGe)2,11.4733,9.4647,-2.0086
InSnAs,9.4135,11.2829,1.8694
ScMn2Sb,63.847,48.9256,-14.9213
MnCoTe2,48.6301,42.0214,-6.6087
ErScAgRh,28.1213,24.9658,-3.1556
BaAgPb2,30.8137,30.8114,-0.0023
Ac(In2Pt)4,44.3027,36.4914,-7.8113
LiAlRe2,17.6446,22.6078,4.9632
CaY2Hg,22.7431,18.3668,-4.3763
SrOs2Se,30.7678,37.0673,6.2995
Cs(CoW)2,18.3352,26.509,8.1738
Be2Zn2Fe,11.9395,8.1158,-3.8237
TaS3,44.1943,33.9684,-10.2259
AcAsPt,53.7454,46.6255,-7.1199
SiRuPt2,49.3057,35.0404,-14.2654
CeMnSb,49.4696,42.0808,-7.3887
Zr2BeFe2,39.0021,31.2857,-7.7164
PmSmSeBr,26.082,25.6704,-0.4116
TcSb3F,47.445,37.7949,-9.6501
ScCu5As,15.9751,14.3006,-1.6745
AsPBr2N,21.5288,17.9548,-3.574
YRe2F,32.1656,32.4249,0.2593
UNi3C,29.7337,28.1607,-1.573
AlPd7,15.6142,17.42,1.8058
CsCaOs2,24.5897,27.5167,2.927
BaY2Hg,40.8498,32.0879,-8.762
K(ScRe)2,48.8309,37.6222,-11.2086
CuIr2Pt,39.7898,37.9945,-1.7952
Li5AcPt2,30.2179,24.1086,-6.1094
PrAg2Sn,18.0742,15.3807,-2.6934
LuScGaAg,19.1339,19.67,0.5361
Hf2Zr3Sc2,84.6833,66.0517,-18.6316
NaAg2B,23.3192,18.2396,-5.0796
Sc2TcRh,75.4262,60.9422,-14.4839
Hf3(Zr4Sc)2,94.6982,73.9779,-20.7203
Hf2ZrSc,89.0994,66.6182,-22.4812
Ba2MgRhO5,0.0,0.0,0.0
TmZnGeAu,23.2483,25.6932,2.445
HfZrSc2,63.0952,50.5356,-12.5596
Na3TbSb2,31.1244,26.0531,-5.0712
Sb2Au,45.6431,39.7569,-5.8862
Ac2Y(TcO4)3,29.6925,27.8107,-1.8818
YPS4Br,41.5795,32.93,-8.6495
Sr8Ge2N,13.5107,13.5292,0.0185
InPdPb,21.5785,25.7417,4.1632
SrGaI,11.1683,14.534,3.3656
NpIn2(Cl2F)2,14.3993,16.3604,1.9611
Ac(Pm2Y)3,20.6668,23.2679,2.6012
Cr2IrAu,21.6657,23.5281,1.8624
Ac2BiPt,67.4422,62.6456,-4.7966
AcTmPt,49.3524,44.7811,-4.5713
Li8AcPt4,32.244,24.4113,-7.8327
PrThPd4,21.3515,24.3822,3.0307
InCoPb2,31.7847,31.6876,-0.0972
AcNpPt2,77.755,65.9318,-11.8232
Mn2Al4C5,46.8754,34.9639,-11.9115
YTa4Hg,38.9946,36.2673,-2.7273
LiPrYTc,60.4817,50.7557,-9.726
Eu2Ni3Ge,16.7141,16.7261,0.012
Ag,0.0,0.0,0.0
Ba2SbAu2,23.8687,23.3547,-0.514
In2Co2Pb,22.92,23.0779,0.1579
TlInCoPb2,38.3662,37.6461,-0.7201
GdNiGe2,18.0915,17.2551,-0.8365
BaSbAu3,37.0329,35.8815,-1.1513
MnGa3Sb,34.1756,27.8514,-6.3242
Pm12Sc3Pd5,7.881,9.4676,1.5866
InCoPb2,35.5381,31.6876,-3.8505
Gd3In3NiGe2,20.5022,20.7164,0.2142
Te2Pb2Se,43.9489,41.8499,-2.099
YV2Hg,77.506,60.1253,-17.3806
Pr5YTe8,23.019,22.2866,-0.7323
LaSmSb,23.3939,20.0607,-3.3332
USnPt,43.9287,40.7786,-3.1502
In3CoPb,25.5303,25.0161,-0.5141
NaAgS,26.7917,22.1121,-4.6797
Sn2MoPd,37.4557,28.4064,-9.0493
BeZn2C,25.9834,17.156,-8.8274
BeZn3C,22.2339,14.9232,-7.3107
YReHg2,22.8897,20.9053,-1.9844
IrOsAu2,45.6591,48.5088,2.8497
La3(PmNi)2,30.8151,25.2202,-5.595
YHgW2,33.1405,31.9854,-1.1552
CsBe3C,18.5044,15.6209,-2.8836
Nd2Th3Ni2,36.8956,39.9067,3.0111
GdTlRu,5.743,12.8891,7.1461
ScPbF3,16.4973,15.3303,-1.1671
TiPb3Au,47.4814,43.6751,-3.8063
NiRuS,19.8539,18.827,-1.0269
Mn2IrRu,69.261,55.2692,-13.9918
IrOsAu2,45.6497,48.5088,2.8592
TmZnGaGe,13.5371,15.4848,1.9477
Pr2Er3Ni2,21.241,19.6765,-1.5645
K3DyF6,3.2905,5.6057,2.3152
Rb2NiPbBr6,15.1828,13.6484,-1.5345
TmAlZnGe2,15.738,15.5679,-0.1701
Y4Hg,20.3679,17.7383,-2.6297
Pr2Tm3Ni2,21.7849,20.2324,-1.5525
PuAlNi2,21.9883,24.3334,2.3451
Re2Ni2Ir3,53.9694,43.3999,-10.5695
SrLaAl2,17.8762,15.2144,-2.6618
MnSiIr2Br,44.8008,38.8855,-5.9153
Ta2Os,38.4444,44.5385,6.0941
AcSmPt2,66.1005,54.399,-11.7015
Ho2GaSi4Ir3,24.6214,23.6796,-0.9418
Ac2SmPt,60.4441,55.9325,-4.5116
SrYHg2,15.4309,13.0504,-2.3805
CsSn3Os,25.9433,27.0996,1.1564
Pb2CBr2,50.636,39.7665,-10.8695
CrSnOs3,34.0113,35.2371,1.2258
LiScI3,14.7528,15.1898,0.437
BeTeRh2,34.9981,28.5049,-6.4932
K2YTe,19.7512,19.8757,0.1245
AcNdPt,53.2685,46.3866,-6.8819
LaFeBi2,34.3656,33.1332,-1.2324
Hf(ZrIr)2,75.6232,64.5518,-11.0713
Y3TiHg,38.3438,27.4556,-10.8882
BaReC2,54.3175,41.5877,-12.7299
TmHfPb,75.5838,63.644,-11.9398
SmSi2Ir5,35.6894,35.4012,-0.2882
AcTb3Pt,46.3567,42.2258,-4.1309
YCu2Hg,19.5355,16.3093,-3.2261
GdTmRuPb,31.9097,35.2168,3.3071
U2AlSi4Ir3,36.3964,34.8938,-1.5026
InGeAu,21.8985,24.4025,2.504
YZrHgPb,50.1248,43.7803,-6.3446
Na(La2Re)2,45.5854,35.4906,-10.0948
SmPuCoAg,33.6996,34.1165,0.4169
TmSi3Ir,16.5749,16.5801,0.0052
LiSc2Re,35.1399,27.512,-7.6279
NdNiI,12.3678,17.3057,4.9379
Th(SnSe2)2,36.8677,33.9243,-2.9434
TmScCuHg,25.8774,22.5512,-3.3263
Zr2ReAgTe,63.287,54.5958,-8.6912
Sr2MgSnO5,18.6546,16.9562,-1.6984
Sr2MgInO5,1.3384,3.4633,2.1249
Th2SnSe,49.2493,49.9788,0.7295
Zr2Tl2Tc,78.854,69.306,-9.5479
LiSc2Nb,38.5876,34.5515,-4.0361
PrGdYHg,18.6823,17.0277,-1.6546
Na2AgPd2Au5,31.6941,31.6473,-0.0467
Os2WAu,106.4604,89.3173,-17.1431
La11Ho4Er9,39.4836,32.3786,-7.105
La11Ho9Er4,39.2625,32.1618,-7.1007
Sc4BiTe2,18.38,19.3302,0.9502
La3Pt7Au2,72.1158,52.3691,-19.7467
NaCaSnRh,24.555,21.23,-3.325
Sb2TeBr,43.8137,38.4157,-5.3979
Y3TcHg,70.4263,55.3456,-15.0807
Sr2MgTiO5,0.0,0.0,0.0
Na2LiGe4Pt3,35.112,26.2976,-8.8144
Ta(NbNi)2,57.9822,53.0965,-4.8857
Ac2Sn3PtRh4,47.0257,39.2598,-7.7659
Zr2TlTc,84.9901,74.5799,-10.4102
ZrTlTc2,83.7374,72.6994,-11.0381
Ac(SbPt)3,60.8757,45.3491,-15.5266
LiNdLuRu,18.4752,21.9488,3.4735
KRbSe2,24.0364,20.4419,-3.5944
Pd2Pt3Au2,57.0163,46.6588,-10.3575
LiAc2(SbPt2)3,66.2162,50.0387,-16.1775
YTh2Hg,45.6203,44.8245,-0.7957
Ta3(IrPd)2,32.9184,37.0956,4.1772
ThMnPd,45.5896,43.8673,-1.7223
Er2Pd3Au2,28.8182,31.0733,2.2551
Ac2Al3GaPt4,49.3931,39.5116,-9.8815
K2ScHgF6,6.5684,7.5042,0.9359
SrAlCr2,11.4727,9.4822,-1.9905
Mn2Tl3S4,58.798,47.2469,-11.5511
Mn2GeN,36.2194,29.833,-6.3864
TaCdSi,24.8374,24.5645,-0.2729
ZrCu2Mo,43.5507,34.3884,-9.1622
CdIr2Se,34.1195,35.6949,1.5754
Zr2CuMo,66.4984,53.306,-13.1925
LaPuI2N,27.1412,24.7367,-2.4045
Hf11Zn9Fe4,71.1667,49.4588,-21.7078
TcNi3Se,33.2624,28.4036,-4.8588
Fe9Co4Ni11,44.4703,31.6362,-12.8341
Y2ZnHg2,21.7246,16.6371,-5.0875
BeGaIr2,23.3753,27.2551,3.8798
ScMnN2,16.8079,15.5119,-1.296
Fe2TePOs,39.6507,33.229,-6.4217
LaTeI2,34.2091,30.0436,-4.1655
TcAgN3,28.5851,23.5795,-5.0056
K3Ag2Sn7,20.3251,19.4028,-0.9223
Pu(InI2)2,28.5031,29.1222,0.6191
YbNdAs,17.7761,21.7979,4.0219
YZn2Hg,16.1781,12.4483,-3.7299
K2BaAs5,5.0119,6.0289,1.017
SnBiS4,45.9831,37.7662,-8.2169
BPdPb3,36.249,37.2488,0.9998
K3Tl5Au2,35.9841,36.4191,0.435
K2Na15Sr2,22.1505,17.7731,-4.3774
Ca2TeMo,19.0973,17.6649,-1.4324
AcCd2GePt2,48.1694,39.6472,-8.5222
LaSmI2N,19.3718,17.4207,-1.9511
NaAg,14.2633,10.5728,-3.6905
Y2ThHg4,23.537,20.3094,-3.2275
Y4Zn2Hg,22.6696,17.941,-4.7285
Ru2BrN,34.2746,29.1954,-5.0792
YZn2Hg,16.2964,12.4483,-3.8482
Tm3(Si2Ir)2,25.5402,23.858,-1.6823
BeTc2Mo,53.2768,44.4463,-8.8305
Sr2IN,13.9638,14.2201,0.2563
PtAu3Br,50.4868,44.5872,-5.8996
YbAsPb,27.9072,30.6201,2.7128
CeLuPd,25.069,27.9193,2.8503
Ac2TlInPt,52.6027,50.2558,-2.3469
V2GaGeP,63.3052,49.7195,-13.5858
Sm11In9Ga4,19.7869,21.0886,1.3017
Tm11In9Ga4,22.4282,23.8173,1.389
BaGaGeAu2,23.7882,23.5296,-0.2586
Tm11Tl9Ga4,34.1603,35.4735,1.3131
Mn4VFe,89.7641,69.7471,-20.017
Nb5Ge3B,72.7921,61.402,-11.3901
YbAsSe,45.4895,43.8586,-1.6309
Tb2Pd3Au2,28.0463,30.293,2.2467
RbNi(IBr3)2,11.91,12.4417,0.5316
Yb(AsAu)2,29.5147,30.9067,1.392
Sr2In8Pd,18.1475,19.2973,1.1499
YAlHg,21.4548,19.8667,-1.5881
BaLa(CuSb)2,25.8354,20.0676,-5.7678
LaNbCuSb2,59.5255,46.4049,-13.1206
Pr3ThSn12,18.294,19.479,1.1851
LaFeCuSb2,45.3048,33.7857,-11.5191
BaZrSeBr2,33.7945,28.362,-5.4325
YAlHg2,18.935,14.5909,-4.344
Tm2Pd3Au2,29.1803,31.4478,2.2676
Ba2LiGe4Au3,18.2291,19.1077,0.8786
ThCuSb2,34.5246,32.6153,-1.9093
Ca(SnRu)2,9.5902,13.886,4.2958
Mn2BeSn2,45.1105,34.4074,-10.7031
La2Nd3Dy7,30.8333,29.6666,-1.1667
TlOsW,130.6685,104.8264,-25.8421
GePSeO2,19.7135,15.3904,-4.3231
Ac(PdPt)6,54.1428,42.3519,-11.7908
CaOsRu,13.7134,20.248,6.5346
Ac2Ga3Cu12Pt,19.1337,17.9363,-1.1975
TcMoW2,46.2765,47.2361,0.9595
Ac7La2Pm3,52.5427,51.1762,-1.3665
AcIn2CuPt2,48.0222,39.5005,-8.5217
Mg2ScCoRh,17.5204,12.4048,-5.1155
Ba2InGeAu,15.045,16.162,1.1171
NaPmHo2,26.6542,27.6884,1.0342
Mn2NbPb,91.7068,76.2117,-15.4951
BaInGe2Au,18.0957,18.7494,0.6537
AcMnCuPt2,63.1636,48.8548,-14.3088
ZrScPS,61.3463,48.7906,-12.5557
Ac3LaPt,66.6294,58.4807,-8.1487
LuPuPb2,52.4943,55.0074,2.5131
Pr5In4Au,9.7301,12.0146,2.2845
LiY3Hg2,21.8126,16.2302,-5.5824
LiY2Hg3,14.8375,11.3737,-3.4637
Sc4PS2N,36.1154,31.3978,-4.7177
PO,19.1638,12.6003,-6.5635
LiAcPdPt,42.419,37.5699,-4.849
Sm3(PdAu)2,28.6376,30.4368,1.7992
CsReSiO6,15.6435,14.5843,-1.0592
LiY3Hg4,19.6439,14.6924,-4.9515
HfTiS4,61.2589,45.2921,-15.9668
NbAl2B,31.1371,30.098,-1.0391
GdTlGe,29.5651,31.6819,2.1169
Ba2GeMoAu,16.1102,16.0837,-0.0265
GdLuInNi,23.1997,24.9772,1.7775
Li(YHg4)3,9.607,7.1213,-2.4857
PrGd2Se,24.887,24.8227,-0.0642
LaYHg2,24.9962,18.0755,-6.9207
LiIrPb,32.451,35.0835,2.6325
Rb2HfPd,38.562,29.3112,-9.2508
Ge3Te2Au,22.6908,23.1514,0.4606
Ta2AsF2,41.7466,37.1193,-4.6273
CaTmTh,29.611,36.3651,6.7541
La2Y3Hg4,24.154,16.867,-7.287
EuAgSn2,24.8863,24.1488,-0.7375
ZrSnOsRu,43.9217,43.4661,-0.4556
HfGeRh2,54.7821,38.6155,-16.1666
LiEuThOs,34.1254,37.241,3.1156
Be2ZnBr,10.6742,7.1957,-3.4785
LaY2Hg,38.1004,27.1034,-10.997
LaY2Hg,38.103,27.1034,-10.9996
ZnGa2Re,23.4467,19.2277,-4.219
LaNiTe,27.955,24.6107,-3.3442
Zn(GaRe)2,23.9083,21.8419,-2.0664
Nb2Ni2Bi,63.0443,56.9184,-6.1259
La3CeN4,21.5591,15.9143,-5.6448
Ce11In9Ir4,25.5381,27.0317,1.4936
Be2AgPb,23.1013,21.0631,-2.0381
RePOs2,52.4786,48.6169,-3.8616
TaWS4,49.6268,41.6577,-7.9692
LuScNiRh,23.1929,22.1555,-1.0375
Li3YHg,12.2884,8.9475,-3.3409
PmY5Cd3,12.022,14.9681,2.9461
ReHgOs,27.8734,32.3791,4.5057
La2YHg2,26.5819,18.7858,-7.796
RePOs2,52.1603,48.6169,-3.5433
HoTmSc,17.7991,21.7636,3.9645
YThMgHg,29.7078,28.2003,-1.5075
RePOs,55.1056,50.448,-4.6576
Rb2AlSi,14.4337,10.8933,-3.5403
TePtS4,59.7471,44.7218,-15.0253
AlReSi4,24.3657,18.9069,-5.4588
PuTeS4,56.2889,45.3279,-10.961
PrGdAgOs,24.2768,25.2549,0.9782
Hf4Ge2Mo,86.7901,63.5796,-23.2105
Na2Ca4P,17.8704,14.6564,-3.2139
MnAuSe2,55.4989,45.6317,-9.8673
MnAuSe2,61.1408,45.6317,-15.5091
TiCrS4,47.1082,35.5394,-11.5689
Y6HgN,33.0645,28.5113,-4.5531
Pu11In9Ir4,47.388,48.8561,1.4681
Re2BiMo,33.0408,35.5504,2.5096
YRe3Hg,36.6098,35.3344,-1.2754
LiTbScRe,39.9605,33.1073,-6.8532
La2Ag(IN)2,26.9157,20.1593,-6.7564
RbSc2W,15.7476,16.2839,0.5364
Y2ReHg,35.5417,30.359,-5.1827
Ta2SiS,36.0135,33.7567,-2.2568
BaTm2Al,25.5032,23.6355,-1.8677
K6Ge2O7,8.1992,6.6346,-1.5646
K4UO5,3.5437,6.0328,2.4891
K3Sn5Br12,3.6947,4.8346,1.1399
TaWS2,46.9471,43.0829,-3.8641
ThTaS2,53.3576,48.2627,-5.0949
Ac2PtSe,65.5647,57.8424,-7.7223
Sr6Bi2Os,25.4278,26.7164,1.2886
TiSb(H3Au)2,13.3414,11.652,-1.6894
CoSbBr2,32.8968,26.912,-5.9848
TiIr2Au,34.1358,33.4343,-0.7015
AcTb2Ho,36.6861,39.6034,2.9174
Bi2AsP,39.7565,38.6382,-1.1183
Hf6TaS,119.2696,85.6314,-33.6382
La3Ge2Rh7,42.3403,30.1502,-12.1901
Lu2PuSb,45.821,45.8567,0.0357
LiAlPb,19.4353,21.9751,2.5398
Ta(SN)2,31.6899,25.984,-5.706
TaPbBr2,36.2485,33.191,-3.0575
Sr3TiSn,20.9519,17.1467,-3.8052
Ac4P3Pd12Pt,27.9226,27.5625,-0.3601
TaReSbTe2,42.6397,40.0092,-2.6305
CuSbIr2,28.8704,30.994,2.1236