Formula,E_hull_DFT (eV/atom),E_hull_ML (eV/atom),Delta (ML - DFT)
ScSi,0.0,0.0,0.0
PrY3Ni2,74.89,64.2985,-10.5915
Y3TmNi2,80.7611,70.1485,-10.6126
ScFe,22.2357,22.5428,0.3071
PmScGa,14.521,15.3862,0.8652
YV2NiTe,95.1015,76.8905,-18.211
Nd3YNi2,35.2387,34.201,-1.0377
Pr3YNi2,27.1462,23.0331,-4.1132
ScFe,7.5119,22.5428,15.0309
YTm3Ni2,38.2174,37.2441,-0.9732
Pm3YNi2,35.2927,34.2203,-1.0724
YZrCo4,35.3846,31.0347,-4.3499
CoTc2Br,51.7235,40.9975,-10.726
TbCe(US2)2,50.3197,43.8866,-6.4331
CaEuPd2,16.5533,18.3737,1.8204
NpTi2Ir,30.7065,34.2546,3.5481
Ni(H5Rh2)2,13.5729,9.9674,-3.6054
CrCd2Tc,35.504,31.7099,-3.7941
Ge3Mo5,4.4449,9.1807,4.7358
Rb2Na2Pb,19.8828,18.0269,-1.8559
U6ReRh2,60.9309,60.6386,-0.2923
Pu4PaH10,23.4232,24.4613,1.0381
TmBC,44.4304,38.6376,-5.7928
RbOsW2,98.1907,77.1615,-21.0292
VNi6Pd,22.9339,21.4036,-1.5303
Nb(MoS2)3,45.2108,34.8866,-10.3242
PuThSc3,22.9594,27.1353,4.1759
YHfCoGe2,52.8752,40.188,-12.6872
Nb2Al2Bi,62.6357,55.7098,-6.9259
Cr4(FeH3)3,10.7337,7.499,-3.2347
Y3Ga3ReGe2,20.9251,18.7968,-2.1284
Pr3TlCd2Rh3,24.1321,20.571,-3.5611
Yb2CuIr,29.6416,31.9948,2.3532
Li2W,8.5862,13.3848,4.7985
YHfTc2Te,106.6088,84.1666,-22.4422
PtAu6,54.4587,50.9869,-3.4718
Tm2SnHgRh4,34.0155,28.5668,-5.4487
ZrZnI2,34.4751,30.9299,-3.5452
SrEuSiAg,32.6947,25.1696,-7.5251
ZrSc3Pa,28.8537,29.2093,0.3556
K5FeNiH2,17.6723,13.7666,-3.9057
BeTcI2,41.62,38.3714,-3.2486
ZrSc3Sn,26.2509,22.0667,-4.1842
HfScB3,31.0943,24.3836,-6.7107
PuZrSc3,38.2529,36.2018,-2.0511
Hf(Cu2Tc)2,52.1946,41.6374,-10.5572
ZrSc3Tc,63.4265,54.9529,-8.4736
ThScAu3,36.4311,40.6824,4.2513
SrHfGa,50.404,40.2326,-10.1714
YAlRhO4,11.1675,10.2843,-0.8832
SrTa2VO8,27.6701,22.5541,-5.1159
ScCd3Hg,12.6436,13.5552,0.9116
PrPu2Pt9,77.9598,58.1708,-19.789
Y6InPd2,17.1415,15.8011,-1.3403
CaSc2Fe,28.45,24.4918,-3.9582
Fe5W,7.7252,11.1205,3.3953
Ta2TlCr,59.4863,49.5416,-9.9448
Y3B2Ir2N3,60.1217,51.355,-8.7666
SmScCu3,17.5175,16.7695,-0.748
Zr2SbPb2,63.8375,56.8851,-6.9524
V5(P4Pb)3,24.4424,20.5731,-3.8693
Li2AcTl4In,36.4767,37.0576,0.5809
CsNi3Sb,23.1536,19.8792,-3.2744
YHfZnCu,55.7933,41.9383,-13.855
Pr2NdRu,35.7363,32.4845,-3.2517
LiLaSmEu,26.5585,24.0732,-2.4853
Y2Zn4Ga3Cu,14.5993,13.0872,-1.5121
ZrP2Os,36.4478,34.652,-1.7958
MnBe2Ag,34.1745,26.3574,-7.8171
V3Bi,102.792,84.2441,-18.5479
ThScGa3,13.4899,17.7598,4.2698
FeNi2Ag,28.3727,25.6415,-2.7311
BiAuBr2,31.2344,32.6554,1.421
Tl2CdI,35.8741,36.3442,0.4701
Y3NiTe2,57.6246,51.2062,-6.4184
YZn6CuAg,14.291,12.6213,-1.6696
Zn(SbAs)2,20.2902,16.7897,-3.5004
CsCo4Bi3,26.8925,28.5241,1.6316
YZnCuSn,36.5674,31.8243,-4.7431
Ag7Ru,29.9402,23.2447,-6.6955
MnBi,48.3895,40.4793,-7.9101
Y2AlTe4,36.1112,32.3048,-3.8064
CuNi4Pt,20.1531,17.699,-2.454
TaCrW2,55.9964,48.7368,-7.2596
SrThSc2,22.5677,25.5641,2.9964
LaMn,76.8096,56.2305,-20.579
Ce(ZrCo)2,46.5273,41.8234,-4.7039
CePrAg4,24.1443,20.0237,-4.1205
AlCrPt2,47.4305,34.2617,-13.1688
AlPAu2,41.483,37.913,-3.57
NaPuZn17,11.83,12.4168,0.5868
NaCaZn17,8.6076,8.7871,0.1795
AlCd3Te4,28.2977,28.0562,-0.2414
Li2BeI,15.7867,16.4219,0.6352
AlPAu2,41.5573,37.913,-3.6443
RbTbCd17,18.5993,19.1855,0.5862
Al2PAu,30.0094,28.2307,-1.7787
La2ErAg,41.1894,32.2267,-8.9626
SrInRu3,17.7116,19.542,1.8304
SrZrSc2,30.7788,28.6844,-2.0944
Sr2ZrSc,33.2303,30.1734,-3.0569
CsRbZnGeO,20.9849,15.6498,-5.3352
GaCuNi4,7.6159,9.1686,1.5528
LaTh3Sc,44.915,46.539,1.624
Tb4Ir2PdRh,31.6653,31.7378,0.0726
Sc6BiAs2S3,39.633,33.7883,-5.8447
Ca3FeCo,20.2249,15.7669,-4.4579
DyTlCd17,21.2485,21.8715,0.6229
CaFe4Co,13.5469,11.3588,-2.1881
AcErCd17,21.9756,22.6541,0.6785
DyTmCd17,20.1357,20.824,0.6883
Na(BeV)2,51.8427,42.2654,-9.5773
HfMnZn17,19.6347,16.6571,-2.9775
ErTlCd17,21.3616,21.9757,0.6141
Na(BeFe)2,16.4268,13.3507,-3.0761
NdSm3Sc,6.1469,11.5245,5.3776
NdEr3Sc,8.9791,14.3939,5.4148
Sr(HoS2)2,22.2144,19.4273,-2.7871
NaCeMg17,4.9364,5.3105,0.3741
ErPuCd17,22.4481,23.1894,0.7413
Zr(CoSn)2,23.6551,23.2634,-0.3917
K4Br2F,9.8454,9.4289,-0.4165
SrSc2Re,38.4224,31.1359,-7.2865
SrSc2Re,32.8873,31.1359,-1.7514
CaLa2Mn,52.3076,38.656,-13.6515
NaPaZn17,11.6015,12.1972,0.5957
NaNpZn17,11.7733,12.3574,0.5841
BaErCd17,18.5825,19.2359,0.6534
Ce2CoBr2,19.5407,17.9766,-1.5641
CeNdScPb,26.7414,29.563,2.8217
SmCo4Cu,19.8586,18.2702,-1.5884
LaScCu17,12.248,11.349,-0.8989
ScMo3Cl,26.8744,25.9674,-0.9069
YTeI2N,43.0511,37.8797,-5.1714
GaNi4Ge,9.8318,9.9845,0.1527
Ta(AuC)2,46.9529,41.0558,-5.8971
ThScCd17,20.8726,21.5888,0.7161
CaPrZn17,7.0022,7.518,0.5158
LaHoNi17,9.5801,10.276,0.6958
NdScCu17,10.824,10.9307,0.1066
DyScCd17,18.8176,19.4932,0.6757
PrPuNi17,10.529,11.4815,0.9525
PrUNi17,10.3359,11.5619,1.2261
CaUZn17,10.9155,11.4149,0.4993
RbTmCd17,18.8319,19.4076,0.5756
RbThCd17,20.6914,21.2946,0.6032
DyCoBiH2,12.587,16.0938,3.5067
Y2PaP3,34.5892,28.9289,-5.6603
Ni4GeRh,16.7575,13.8604,-2.8971
YP2Ir3,21.6039,20.484,-1.1199
YP2Ru3,3.4051,5.2558,1.8507
YScCd17,18.1014,18.7769,0.6755
CsTbCd17,19.791,20.4024,0.6114
LaCeCd17,21.0469,20.7809,-0.2661
Ag2Pt2Au3,54.79,45.6315,-9.1585
YNp2P3,7.9318,10.7038,2.772
Mg2S2O7,3.5271,3.2511,-0.2761
YHf2P3,59.897,42.8107,-17.0863
SrNdHg17,1.5911,1.9088,0.3177
ThCd17In,21.6764,22.3304,0.654
ThCd17Pb,23.3926,24.0379,0.6453
LaErCd17,21.2989,21.0019,-0.297
HfTiZn17,14.616,13.05,-1.566
PaTiZn17,10.5861,11.482,0.8959
Ac2HgWO8,14.2609,15.8626,1.6018
KGe2PdO6,6.1446,5.6642,-0.4804
Ac4UN5,33.0493,34.1991,1.1498
AlTe3Pt,44.5521,37.4479,-7.1042
CeThZn17,11.4026,12.3495,0.9469
AcCeHg17,4.3152,4.6409,0.3257
Ca2AlInSe5,43.4609,34.7439,-8.7169
PmSmCd17,19.6496,20.3647,0.7151
ReNi4Ir,23.4957,20.138,-3.3577
NdHoCd17,19.8316,20.5379,0.7063
K(Co3S4)2,33.0917,24.2087,-8.883
AcUB12,9.6821,11.6935,2.0114
YBTe2I,62.0426,52.5734,-9.4692
MgC2,35.9132,27.5649,-8.3483
Sc5S5N,43.7796,38.7519,-5.0277
MgC,22.6497,20.7593,-1.8904
HoScSe3,27.8344,26.4763,-1.3582
TmTlCd17,21.4344,22.047,0.6126
LaPaZn17,12.9144,12.8014,-0.113
ScSbSe3,34.2125,27.9479,-6.2645
CePbAu17,46.3001,47.1708,0.8707
Ba2Tl6CdPb,35.1815,36.3794,1.1979
NdNpZn17,11.6644,12.586,0.9216
PaZn17Mo,11.2182,12.1234,0.9052
K2NaTeF,28.8926,25.0211,-3.8715
Ta2CoNi2,35.1351,31.6425,-3.4926
CsPuCd17,22.215,22.8985,0.6835
AcPrNi4,18.7737,18.8127,0.039
Li2Ce2Sb2O,27.9386,24.7916,-3.147
PuNpZn17,14.213,15.1592,0.9462
Sm2Np(SeN)2,29.5651,30.3286,0.7636
Tb3Nd3Tl2,31.7283,33.3966,1.6683
Zn2Co2Si,14.7706,7.3266,-7.444
Sc2SN,25.5105,25.6188,0.1082
Co(PdPt)2,45.762,35.5512,-10.2108
HfMoRu2,49.0946,40.9318,-8.1628
Na3(AgBi)4,37.9092,33.8961,-4.0131
AgBiTe2,42.6927,40.6858,-2.0069
Li4SeO,17.8008,15.4661,-2.3347
GaSn2Os,23.2356,25.8548,2.6192
Tb2Pm2Co,16.5308,20.7539,4.2231
ZnCo,7.5481,0.4475,-7.1006
Co(IrRh)2,38.2681,35.0439,-3.2243
KAcCd17,21.0756,21.6473,0.5717
La3TbYEr,32.4497,26.9082,-5.5415
KBaHg17,0.207,0.3577,0.1507
BaTlB12,4.1236,5.7363,1.6127
Sr2InMo,12.9469,15.4764,2.5295
AcY2Th,39.6217,42.8665,3.2448
CaInB12,2.2735,3.8598,1.5863
Sm2Tm2Co,18.2636,22.931,4.6675
CaNdB12,2.2463,4.1882,1.9419
CsRb3Be,6.9569,6.4745,-0.4824
CsNi2Bi,19.9931,23.073,3.0799
CaSnB12,2.2998,3.9713,1.6714
Co(IrW)2,35.4029,38.5658,3.1628
MnHgBr2,30.074,25.5165,-4.5575
Tb3(Y3Er)2,20.2722,22.4813,2.2091
SrInMo3,18.5898,19.7,1.1102
Nd2ScAlS6,35.7888,29.1803,-6.6085
CsKHg17,1.5189,1.6281,0.1092
CaUB12,5.5015,7.4479,1.9464
KTlHg17,2.9791,3.0961,0.1169
KHg17Pb,3.0937,3.2364,0.1427
In4CoPb2,28.6004,28.7061,0.1057
SrInMo2,17.0724,19.101,2.0286
Li2NdPN,12.7746,11.5316,-1.243
PmNdSmHo2,22.2659,26.3101,4.0442
BaCdB12,2.804,3.3883,0.5843
CePuB12,7.0497,8.9878,1.9381
K2SrIr,22.7643,19.699,-3.0654
NiTeI2Br,21.4412,21.323,-0.1182
CeTmB12,4.1108,6.037,1.9261
TbCeB12,3.7868,5.7385,1.9517
CaSmEuLu,23.1071,25.4177,2.3106
Na2BeAuBr,21.8144,19.8625,-1.9519
CuSnMo2Os,45.9993,38.0417,-7.9576
Ce3YPb5,33.4339,35.7436,2.3097
AcCrB12,5.6978,7.1013,1.4035
CeUB12,6.8557,8.9017,2.046
Ac2GaCo2,29.7568,32.3954,2.6386
TbTh3Sc,39.4077,43.8602,4.4525
CsAcB12,6.6546,8.3183,1.6637
Ba2Ag3Hg2,10.8531,8.6169,-2.2362
TiNb2B,63.8831,57.6634,-6.2197
Pm2PrTi,12.922,16.081,3.159
DyPaB12,6.9582,9.0186,2.0604
Ce2Cd2Ag3,22.6185,21.1325,-1.486
BaYIrO6,16.1505,15.529,-0.6215
HfNbPt4,106.3524,77.3945,-28.9579
CaY2Ru,21.7025,17.2924,-4.4102
LiUBe17,4.2495,5.6126,1.3631
CaTaNiN3,13.552,11.9627,-1.5893
LiTmBe17,4.8771,4.2292,-0.6479
YCo2TcC,65.5088,52.5787,-12.9301
SrTlRe2,44.684,40.9296,-3.7544
LiTiBe17,2.4941,3.0653,0.5712
LiBe17W,6.1951,5.3306,-0.8645
BaYSc2Co,26.3968,22.5242,-3.8726
LiTaBe17,6.0374,5.2322,-0.8053
SnHgPb2I,30.4023,30.6702,0.2679
LiBe17Mo,2.2061,2.685,0.4789
KTlPb,30.9152,34.3343,3.4191
LiBe17Os,2.7124,3.7362,1.0238
LiPaBe17,5.5048,5.521,0.0162
LiBe17Nb,7.943,7.8193,-0.1237
Y3IrSeCl,38.5501,37.8778,-0.6723
Y2CoSi4Pt3,48.8911,34.9796,-13.9115
NaTeAsC2,41.6047,31.2738,-10.3308
YSc3Ni2,25.4028,23.7042,-1.6986
AcLaB12,8.3233,9.0723,0.749
NaCaTa2N,30.5407,27.9822,-2.5585
Pm3Y7Er2,19.2865,22.0428,2.7564
Ni2HgRhI,18.2151,15.7783,-2.4368
YSc3Hg2,5.8459,6.1998,0.3539
CrCd2Ni,24.2276,22.9409,-1.2868
Y3ScIn2,16.196,16.2059,0.0099
SrBe3Br,10.505,7.4814,-3.0236
ZnGeOsSe2,31.6169,28.25,-3.367
Y3Er2Sc,11.7983,15.345,3.5467
LiScBe17,2.4416,2.5579,0.1162
Y3ScSb2,23.0858,20.8508,-2.2351
LiThBe17,4.0954,5.4786,1.3832
LiTbBe17,1.9594,3.3145,1.3551
AgSb2Mo,34.4277,28.9562,-5.4715
YVTeI2,46.1209,39.8699,-6.251
CdSbPb2,42.3568,40.8942,-1.4626
Cd3Pd2Rh,23.393,22.2156,-1.1774
HfNp(UAs2)2,48.1252,45.0071,-3.1181
KTc2Br,48.408,40.1709,-8.2371
Ca6Sb2Ru,15.9136,13.4639,-2.4497
CaYTeI2,24.4969,21.5775,-2.9195
PdPt4Rh,64.668,45.9583,-18.7097
Li2Y2Ga,3.6936,5.4661,1.7725
Rb2MgSnF6,11.6938,10.0227,-1.671
CeY2S3,35.1588,28.7154,-6.4434
NbGeB3,32.0644,28.2221,-3.8423
TbY2S3,35.4558,28.5725,-6.8833
Sr(GaMo)2,6.9672,10.8689,3.9016
TiPRh2I,27.5562,20.8768,-6.6794
YSc2S3,43.3059,37.1922,-6.1138
Zr3Ga3Ni2,22.1745,20.5666,-1.608
PmMgB12,3.2086,4.371,1.1625
YTaTe2I,46.5224,40.0468,-6.4755
NbFeB,47.288,42.0619,-5.2261
CaInTe2W,30.8065,30.281,-0.5256
LaPmB12,5.5192,6.2832,0.764
Ca3PmY3Se8,45.9689,37.2827,-8.6862
LaPaB12,8.6095,9.3641,0.7546
CaNd3(YSe3)2,38.1356,32.618,-5.5176
Rb2WSeI6,23.4418,22.2281,-1.2137
Tb4Y6Er,20.0534,22.2031,2.1498
Tl5Pt,54.265,51.0054,-3.2596
Li2YCdO,21.1176,19.2038,-1.9138
TbY7Er3,19.5051,21.3194,1.8144
LaTbB12,5.6743,6.2674,0.5931
Y3ScSi2C,42.548,34.0268,-8.5212
LiCeZn17,8.0392,8.8929,0.8537
RbPb5,40.872,41.8725,1.0006
LiZn17Cd,7.877,8.5477,0.6706
Hf2PRh2,68.5759,48.5273,-20.0485
MgUB12,6.456,7.6877,1.2316
K2TaPt,34.3956,29.6337,-4.762
Hf2TaCo2,83.8953,60.1266,-23.7688
CuTc2Ag,56.1831,47.3181,-8.8649
YMnIr2F,46.2392,41.2296,-5.0095
Ho2Co2Ir,1.7521,9.0293,7.2771
CuTcAg2,41.1157,33.6604,-7.4553
BaPt3Br,56.8251,40.0582,-16.7669
TaNbMo4,39.7293,39.4944,-0.2349
LiZn17Hg,7.3412,7.8362,0.495
Co2TcRh,32.7477,28.4791,-4.2686
NpPaB12,10.0569,12.1067,2.0498
NdSmB12,3.6556,5.6039,1.9482
Hf2Zr2Co,89.1386,67.6014,-21.5372
Tm2TlRh3,42.5011,36.3051,-6.1961
CaYInIr,28.6956,24.2475,-4.4481
Y2TaCoMo,51.4427,38.9534,-12.4892
BaPtBr2,28.5463,21.3261,-7.2201
Ac3Te2Rh,47.6576,48.2507,0.5931
Ga3OsRu,18.5402,19.2764,0.7362
UPaB12,9.9522,12.113,2.1608
Zr2Nb2Co,88.4655,73.8571,-14.6084
Sn2SbAs,24.2785,23.1855,-1.093
ReRh2W,35.4141,35.0309,-0.3832
NdUB12,6.8648,8.9034,2.0386
AcB12Pb,8.7397,10.4892,1.7495
NdYCoRu,34.3337,31.5751,-2.7585
Tb6Cd3Os2Rh,28.763,30.1315,1.3684
NaYPbBr6,15.7942,14.6598,-1.1344
Ac2Pm(H4Pd)3,11.2672,12.5242,1.2571
PrSmB12,1.5489,3.4984,1.9495
YCo2RhF,33.1665,25.5296,-7.6368
NbCrB,22.8828,24.8923,2.0095
HgTeRhI2,27.5471,24.0055,-3.5415
NaCuAs2Se,32.8893,29.5332,-3.3561
BaAcScS4,39.6991,32.6452,-7.0539
NbRu4W,50.4421,41.3261,-9.116
La2ThCo2,29.6422,26.3261,-3.3161
NaTl2(CuI3)2,24.7737,25.0638,0.2901
Hf2NbB,107.8159,82.1292,-25.6867
HoU2NbN4,37.4452,36.9517,-0.4936
NdY2Hg,31.3365,25.1156,-6.2209
Pr2AsI,4.5578,7.8208,3.263
Ho3In3Rh2Au,31.4441,29.7903,-1.6538
SrPBr,11.8454,11.2903,-0.5551
BaScBS2,32.4788,27.2121,-5.2667
NbTcSn4,46.761,41.7811,-4.9799
Ga2HgTe,12.2643,13.0022,0.738
La2ThUN4,28.7015,27.295,-1.4066
KLaCr2,22.6086,18.9536,-3.6549
RbSrB12,1.4594,2.9908,1.5314
Tm2ZrNbH,60.3133,52.7785,-7.5348
Tb6Pm3Y2Er,24.2671,25.891,1.6239
NaCrReOs2,33.5153,34.8945,1.3792
Rb2TcSeI6,27.8078,25.4148,-2.393
Tb5(YEr)2,24.5144,26.6848,2.1704
NbReW4,55.8338,56.9593,1.1255
HoAlCd,16.4533,18.9283,2.4751
Tb2(YEr)3,22.9935,24.7014,1.708
SrTmPd,20.1505,22.4257,2.2752
Pm5Y5Er,20.5503,21.9829,1.4326
Pm7Y2Er3,24.1797,26.1409,1.9612
SnPbF2,24.5978,25.0675,0.4697
Li3AgI,10.9525,9.6818,-1.2707
LiYCo2C,34.5671,26.0353,-8.5317
TbTaCuO5,0.0,4.5479,4.5479
ZrNbHgI,65.7049,55.4253,-10.2795
Cu2Ni2Os,9.3769,12.6914,3.3145
CuNi2,1.2429,5.4847,4.2418
HgOsI2,19.5138,21.2896,1.7759
Sr2InRu2,15.8193,17.5992,1.7799
Pm4Y3Er4,23.6145,25.0691,1.4545
BaMnI2,32.1374,27.1472,-4.9903
K3(Tl2Pb)2,35.8733,36.5232,0.65
Sc2Cd2S,23.6949,23.3121,-0.3828
TaCu2Pb,28.0251,29.0128,0.9877
PrScB12,0.2499,2.1083,1.8583
Cd2Tc2Ag,47.1634,41.4152,-5.7482
PmYEr4,21.1238,24.2345,3.1107
Ba2Nb2Sb,62.6961,50.917,-11.7791
Al2SiTe,26.2367,22.4151,-3.8216
Pu(PaCo)2,33.8796,39.0093,5.1297
Zr8Ti,88.9196,72.9083,-16.0113
SrSc2Sn,19.3775,17.1174,-2.2601
ZrV2As,83.9562,69.3739,-14.5822
Nd4TlPt,23.8725,23.7433,-0.1292
Sn(RuBr)2,19.433,16.5207,-2.9123
Pr2SmTh,20.4378,22.8558,2.418
Pr(AgSn)6,24.3985,20.9699,-3.4285
Al2SiTe,25.9451,22.4151,-3.53
CuBi2Mo,40.6419,36.6345,-4.0074
Li2Er2ScPb2,24.3871,26.2807,1.8936
CrTeAu,33.0489,32.9761,-0.0728
Nb4Ga2B,85.9039,71.2178,-14.686
MnCuP,42.749,32.6951,-10.0539
Pm4Y2Er,17.5975,20.5987,3.0012
SmHoB12,3.9628,5.8696,1.9067
Pm3(YEr2)4,24.7053,25.7397,1.0344
PmY3Er4,17.6836,20.6093,2.9257
Nd4PtPb,34.1356,32.926,-1.2096
Li2MnCu,27.0513,21.9219,-5.1294
B(Ir3Pb)2,40.9477,43.0698,2.1221
LiMn2Cu,46.6153,37.0357,-9.5796
Nd2Co2Ru,0.0,2.3031,2.3031
AcNd4Tm,32.8865,34.6321,1.7455
Sm2Co2Ru,0.0,2.3292,2.3292
LuPaCrTc,50.6752,48.8531,-1.8222
SbTe2MoPd,36.0513,30.5758,-5.4754
LuPaFeTc,57.4539,52.3245,-5.1294
SbTe2PPd,31.2656,27.9772,-3.2884
GaSbTe2Pd,33.7456,29.6392,-4.1064
ReSb2TePd,39.2393,34.7492,-4.4901
CrSbTe2Pd,32.6564,28.3883,-4.2681
Ca3HCl,4.0372,4.3437,0.3065
ZnInSi,15.4175,14.5349,-0.8827
NbB2C,45.4168,37.7738,-7.6429
CsK3Ni,13.7161,13.0436,-0.6724
Sm6YTm12,28.1132,29.2861,1.1729
SrAuS2,38.7879,32.9939,-5.794
In2Sb2Cl,23.5304,20.5612,-2.9692
Zn2CdSn2,13.1931,14.7633,1.5702
Hf(CoSn)2,32.46,26.921,-5.5391
UNbB2,52.7924,50.1925,-2.5998
GaO,0.0,0.0,0.0
IrRuIN2,38.869,34.9575,-3.9115
PrAlGa2Pd5,14.086,13.8499,-0.2361
Cs2Rb3UO6,8.7656,10.549,1.7834
Tb15Y4Er,24.2033,25.6466,1.4433
MnCrNi2,59.8254,52.151,-7.6744
Ac2(LaSm)3,44.9203,39.4725,-5.4479
Sc2GePd3,22.3134,19.1294,-3.184
NdSmTh4,52.3692,55.2524,2.8832
Hf2Tl2O7,26.4331,20.1329,-6.3002
Al3Ag,6.555,7.4735,0.9185
Mn2CrNi,79.046,65.2322,-13.8138
TiNbB2,36.5045,33.9313,-2.5732
AcLa4Sm7,37.443,32.7757,-4.6673
K2YbI6,20.9111,21.7803,0.8692
La(ScS2)2,43.3152,35.0073,-8.308
NdSm4Tl,29.1495,31.8717,2.7222
NbBW2,55.1598,53.2715,-1.8883
InCN,37.8434,30.3294,-7.5141
LiLaPrRe,22.0139,20.2481,-1.7658
CaSbP,35.3037,27.8161,-7.4876
NdMnI,42.7062,38.3668,-4.3394
K(TcPt)2,68.9207,53.6354,-15.2852
Dy2TmRh3,37.8671,31.7882,-6.079
SrNdB12,2.8269,4.8267,1.9998
NbBP,24.4513,25.7693,1.3179
Li2Sc2H5,1.6378,2.0182,0.3804
Nd3Er2Tm3,28.1664,29.5462,1.3799
CaHCl2,0.0,1.1163,1.1163
GePtN2,26.6464,23.7975,-2.8489
LaHfZr,98.0428,73.5465,-24.4962
Tb2Co2Tc,24.5841,26.6367,2.0527
YCoAgSe2,45.4728,35.463,-10.0098
TbPuB12,7.2149,9.1186,1.9036
TlSb2C,51.821,41.994,-9.827
ZnCrW2N,29.5873,29.4447,-0.1427
Y2NpBi3,22.6359,29.2183,6.5824
TlSbC,48.0692,40.441,-7.6282
Sc2CrGe4,21.9987,16.4404,-5.5583
Ce6P3S2Br,22.6755,24.0936,1.4181
CeY2Ag3,24.1972,21.8478,-2.3495
CaTb2YHg4,12.9627,12.2492,-0.7134
AlTeBr3,16.0173,15.9647,-0.0526
CrPt2W,56.3855,45.4205,-10.965
SiTc3N,60.947,49.5089,-11.438
Tm2ThCo2,27.6311,30.7989,3.1677
Y2ThAu3,38.5386,40.5644,2.0258
AlTe2Br,24.6777,23.8672,-0.8104
LuThN,32.7505,35.4637,2.7133
PaSb2Pt,54.4487,46.0299,-8.4188
Ir4Rh7,47.0387,39.2898,-7.749
NiPtAu2,43.7544,40.7652,-2.9892
EuAl4Pb,15.3586,17.0829,1.7243
ZrSiSb,46.367,37.2369,-9.1301
LiCrAu,4.6159,7.71,3.0942
NaNi2Rh,18.0156,15.8903,-2.1254
NbGaB3,35.3952,28.8069,-6.5883
BeCu2Ag,15.511,12.5502,-2.9608
Li2CrAu2,16.8173,17.9531,1.1358
Y2Tm2Ir3,30.6015,33.4451,2.8437
Ce2TmGa3Pd4,20.0812,20.3177,0.2365
CoRhW2N,69.8671,62.9116,-6.9555
SrHgS2,20.1718,15.2304,-4.9414
SrTlB12,5.0659,6.6354,1.5695
Mn2TcGeN,60.1938,48.1499,-12.0439
SrSnB12,2.8785,4.5882,1.7097
Sr2SbPb,27.3966,27.7995,0.4029
CaTiCr2,23.0486,19.3949,-3.6537
SrNdGa2Pd5,17.6542,18.18,0.5258
BeNb3B,86.0888,71.9855,-14.1033
Bi2Sb2Pd,39.8963,36.1608,-3.7355
Tl2SbBr4,31.3944,30.2016,-1.1927
Cr2TcNi2,33.7472,30.1612,-3.586
NaYHgSb,29.5213,23.2485,-6.2728
La3Pm4,36.3336,30.0159,-6.3178
MnAg2HgF6,16.2162,13.785,-2.4312
SrTmB12,3.3149,5.135,1.8201
ZrTcRu2,55.8743,50.6891,-5.1852
AlCu3N,13.6512,11.1286,-2.5226
Nd4NiBi2,30.0437,31.8069,1.7633
BaSr2Pd,8.175,10.8759,2.7009
Al2Te2Pb,28.4969,28.5841,0.0873
Tm2GaN,10.3717,16.7394,6.3676
SrUB12,6.0831,8.0283,1.9452
Re2Mo5,25.9115,26.4331,0.5217
CrTc3N,66.9209,54.1581,-12.7628
Nb3PbBr,104.7118,85.8891,-18.8227
Ac4PmNd,51.3703,53.5303,2.1599
Be5(Nb2B)2,51.2933,43.8224,-7.4709
EuThN,31.0179,33.578,2.5601
ThUB12,9.8064,11.9521,2.1457
Na2TaGa,45.3804,36.0628,-9.3175
Sr2MnBr,32.653,26.7901,-5.8629
PmSc4PbS8,48.7684,41.5791,-7.1893
PrPuIn2,26.4736,28.8513,2.3777
Cu2RhN,11.678,14.8826,3.2046
LuRh2Pb,45.4706,39.6478,-5.8228
Cu2TeAs,12.5874,14.1801,1.5927
HfPRh,64.4417,47.6673,-16.7744
ErTm2PaFe2,31.7758,29.6524,-2.1234
Mn2Fe5,28.4638,23.1083,-5.3555
SrTmMg17,4.6067,5.432,0.8253
SrYMg17,4.1686,4.5411,0.3725
LiCr2Au,11.8211,13.2906,1.4695
Ba(YHf)2,76.4955,57.8073,-18.6882
NbFeB2,35.9512,32.7195,-3.2316
Tc2WN4,33.2083,29.4147,-3.7936
PmTiB12,2.531,4.3108,1.7798
Ag2SnSb,29.0353,26.1425,-2.8928
NdTiB12,2.5174,4.3008,1.7834
Na(ZnRu)2,10.3986,13.4723,3.0737
Y2NbOs3,50.1852,47.6304,-2.5547
Ni2PtAu,37.378,34.2903,-3.0876
Ho6In2HC,26.5733,25.862,-0.7113
Ce(ZnCo)2,21.4195,14.4111,-7.0083
BeInN2,22.2823,20.589,-1.6933
Pr6AgGe3,0.0,0.0,0.0
AcTlB12,8.602,10.4037,1.8016
LiAc2HgN,22.855,26.0584,3.2034
AlTc2IN,47.328,38.0918,-9.2361
YTaCo2Se,55.3626,40.8981,-14.4645
CsRb3Ni,7.6626,7.2918,-0.3708
TbNd3Y2,17.2092,21.0297,3.8204
TmMgCd17,18.9024,19.5533,0.6509
TcAu2N,42.4732,43.1922,0.7191
SmZrB12,9.1442,9.5564,0.4122
CrW2I,28.3633,30.7958,2.4325
PaSn,43.8948,47.9788,4.084
MnBeAg2,41.4404,31.93,-9.5103
NaScB12,4.2513,3.7766,-0.4747
LiYTcSn2,58.207,49.6467,-8.5603
CsRbGa12,9.0657,9.5455,0.4798
LaTi2Cr,23.8396,21.1524,-2.6872
Y6Mg23,5.6704,5.7721,0.1018
Pm2Y3ErTe6,29.7786,29.7145,-0.0641
SrPaSn2,30.2316,33.1118,2.8801
Ti2CuPb2,19.5482,22.4503,2.9021
CsBeN2,30.0778,26.1287,-3.9491
NaLiB12,4.0906,3.3375,-0.753
MgZrNi17,10.7801,11.73,0.9499
LiAcB12,4.8891,6.5576,1.6685
KTiBi2,27.4514,29.2596,1.8082
RbBaHg12,0.0168,0.1766,0.1598
YPaMn17,93.1947,71.8992,-21.2954
MgZrZn17,12.2025,11.8581,-0.3444
NdY2Pd3,22.0248,20.7648,-1.2599
ErUMn17,94.1099,72.7748,-21.3351
HoMn17Co,91.0689,69.4825,-21.5863
CePaMn17,93.7884,72.4951,-21.2933
YZrTe2I,43.5875,39.1337,-4.4538
Sr2TaPd2,21.0343,18.5466,-2.4877
PtAu2N,43.3697,41.1399,-2.2299
LaCr3,14.058,12.3719,-1.6861
TbCeMn17,91.6519,70.2644,-21.3875
Y2TmPd3,22.9342,21.7738,-1.1604
Th(ZnCo)2,29.5884,22.8365,-6.7519
Hg5Pd,2.6918,3.4027,0.7109
Co2AsBr,14.1974,11.0241,-3.1733
PmY2Ho3,17.6603,21.4173,3.757
LaNdCo4,16.777,16.5267,-0.2503
Cu3(NiRh2)2,25.5141,19.917,-5.5971
CoAs3Br,15.9602,13.278,-2.6822
LiYSn3,23.8464,20.3342,-3.5122
Cu(NiRh)2,17.8623,15.6606,-2.2017
SrP2Br,10.3943,9.8715,-0.5228
CsRb2U2O7,11.6699,12.7699,1.1
LiTl2V2O6,38.0128,32.0233,-5.9895
YbGaIr2,32.2571,35.4739,3.2168
Cu7(NiRh)2,14.5046,13.09,-1.4145
CrNiPt2,52.6914,40.5281,-12.1633
HfTe2Ir,67.9171,57.6458,-10.2714
HfCd2Ir,51.8196,45.7469,-6.0727
HoNpMn17,94.1476,72.8001,-21.3476
AcTb3Dy7,30.7552,31.8798,1.1247
Cu2TcSb,38.3259,32.8752,-5.4507
SrBeW2,34.9878,29.0198,-5.968
Tb2YEr,24.1093,26.9001,2.7908
Y2ErRh3,25.7109,21.2501,-4.4608
SrAl2Au3,22.6274,25.023,2.3956
NaYInHg,23.4309,19.6998,-3.7312
SmPuTe3Rh,37.4543,35.9783,-1.476
Cs(SrIn)2,15.8845,17.8044,1.9199
Y2PaSb3,17.2199,17.2171,-0.0028
SrBeW2,35.3692,29.0198,-6.3494
SrBeW2,35.0637,29.0198,-6.0439
TbY2Ir3,30.1269,32.8071,2.6801
Cu3W,9.2004,12.7561,3.5557
Dy(ThNi)2,27.5035,32.3474,4.8439
SrSmTm,23.196,25.6845,2.4885