Formula,E_hull_DFT (eV/atom),E_hull_ML (eV/atom),Delta (ML - DFT)
MoAsPb2,32.9293,34.5913,1.662
CeZr5Sb6,64.8362,55.2837,-9.5525
ReAgTe,38.8523,37.6152,-1.2371
PuTiGaMo,25.216,28.6471,3.4311
Na2CaTi4,18.8442,16.1333,-2.7108
Cr2IrBr,33.3332,30.1757,-3.1575
CrPIr2,48.2684,47.7913,-0.4771
CrIrBr2,33.2524,30.5204,-2.7321
TaCr2Ir,51.0298,41.7635,-9.2663
CrAgIr2,33.1604,33.8475,0.6871
CrIrRu,28.5661,26.8749,-1.6913
CrSbIr,34.165,31.8611,-2.3038
CsCrP2Ir,43.8507,37.3861,-6.4646
CrIrOs2,35.5829,37.8865,2.3036
Cr2SnIr,14.8379,16.9277,2.0898
ZnCrIrOs,29.5085,28.4536,-1.0549
CsLiCa2,8.9471,9.8853,0.9382
TmTiGa4,11.1845,13.1341,1.9495
Cr(MoIr)2,21.39,21.9316,0.5416
CrTcIr3,48.8594,45.5833,-3.276
Cr3InIr,19.9462,18.486,-1.4602
CrIr2Os4Ru,37.6887,38.3724,0.6838
LiCrIr2,25.3199,26.3145,0.9946
Hf(IO)2,64.9665,49.003,-15.9636
CrIr3W,38.0681,38.8791,0.811
NpUCrIr,48.8539,51.2097,2.3558
PuNiHgRh,31.6243,29.718,-1.9063
CrCdIr,25.7152,25.572,-0.1432
KCrIr2,29.1403,28.9109,-0.2295
AgMo3I,22.145,21.9481,-0.1969
BeCrIr,11.0522,14.9636,3.9115
CrIrAu,35.3877,35.9025,0.5148
Gd2CrIr,28.7593,29.4549,0.6956
Tb2Sm2Y6Er,19.7497,21.452,1.7023
LiAg(BiS2)2,45.5565,37.0224,-8.5341
CrHgIr4,31.6847,32.504,0.8193
Sc2PdS,34.2034,30.9722,-3.2312
TlCu2AsCl6,10.5888,9.8461,-0.7427
Cu2AgPbCl6,12.2463,11.3458,-0.9006
YPdPt3,59.9508,44.2428,-15.708
CrAsIr4,33.7673,34.7194,0.9521
Al2TcAs,41.0894,32.6468,-8.4427
Ac(CdHg5)2,7.6019,8.076,0.474
CrIrPt2,58.9498,46.6197,-12.3301
NaLiPdO2,27.0977,23.375,-3.7227
AlTcAs2,41.4938,35.9972,-5.4967
Zr2ScPt,64.8595,56.1482,-8.7112
AlTc3As,69.2022,56.0238,-13.1783
ErTiGaAu,28.3578,24.9774,-3.3804
SiPCl2,7.1397,7.4196,0.28
RbBi3Br,35.8206,35.8648,0.0442
SiP2Cl,7.7788,7.2685,-0.5102
La2Nd(AgPb)2,41.9393,37.4552,-4.4841
HoNpPd6,24.9339,26.8192,1.8853
TiGaFeAg2,21.2187,16.5294,-4.6893
YErPSe,35.893,30.7077,-5.1854
Ba2CaI,6.5455,7.6303,1.0848
CrCo2Ir,17.5436,18.6886,1.1449
Sr5Zr2N6,16.121,13.1398,-2.9813
K2Zn12Au7,21.0733,21.5206,0.4473
Ba2YNb,60.4332,50.03,-10.4032
CoGe2Rh,18.2832,16.4615,-1.8217
Lu2BiRu,33.8837,37.4472,3.5635
Nd2PdSe4,30.6916,27.0337,-3.6579
Na5PbAu2,33.6516,31.2781,-2.3735
Rb2Sr4N,12.7657,13.0593,0.2936
YNb3(MoN3)2,51.1643,42.5542,-8.61
Ho3(TmTh)2,39.7851,42.6817,2.8966
Pr2Sm2Rh3,33.0637,26.1751,-6.8886
PrNdHg,6.3356,8.711,2.3754
Ca3Y(ErSe3)2,50.4809,40.9116,-9.5692
NaSrLa2Rh,37.8613,28.534,-9.3274
CaY3(ErSe2)4,37.8387,32.5613,-5.2775
Ga2SbC,26.4991,21.917,-4.5821
LiHoSnBr6,12.2876,14.2254,1.9379
Na2PbAu,34.6229,33.4931,-1.1298
CeY4Pb15,43.1481,44.11,0.9619
Ti3Ga2C,8.1346,7.8513,-0.2833
Na2Tb(SmSe2)3,34.9486,30.0747,-4.8739
LiY3(ErS2)4,36.4247,29.4254,-6.9993
Pm2ErPt,42.2446,38.7665,-3.4781
AlCI2,28.449,21.7327,-6.7163
ZrAgSe3,49.0706,40.3268,-8.7437
BaSr4Pb,17.8814,18.8357,0.9543
Hf6TlNi,114.9533,83.9057,-31.0476
LaHfTlSe2,69.3154,52.3302,-16.9852
Ti12GaGe6,7.8026,8.6087,0.8061
RbCu(ICl3)2,7.7475,7.7365,-0.011
Y3Er5P,27.2694,25.9369,-1.3325
Tb2EuPb,33.2377,35.1714,1.9338
Li2TbIn2,11.9704,12.5006,0.5302
Ho4Ni3,18.4894,20.0387,1.5493
Ho2Tm3In2,26.7482,28.9782,2.23
CaPm6Y2Er3,24.1567,24.3193,0.1626
BeCdHg3,4.5755,4.4096,-0.1658
SiTePtPb2,51.22,44.1493,-7.0708
SmY3(ErSe3)2,32.7989,28.8462,-3.9527
K3CuCl6,2.7472,2.7047,-0.0425
LiY2Zn4Ga3,9.5987,9.3376,-0.2611
Nd4PtRh,32.9112,28.1719,-4.7393
BeTe2Pb,34.2132,33.6799,-0.5333
YEr3Pd,25.2848,25.948,0.6632
Ir4OsRh,44.143,45.3022,1.1592
LiScSnPb,27.3938,25.2902,-2.1036
TcAs2I,29.3867,27.2368,-2.1499
Be5Au3,17.6955,19.2692,1.5737
LiSnSb2Te,31.0863,27.4414,-3.6449
Y3ErPd,18.3337,18.9238,0.5901
Sc2MoS,38.7054,36.5658,-2.1395
CaY3Au2,20.937,21.3341,0.3971
Pr2Sm3In2,14.7504,17.8532,3.1029
Ta5Mn4Fe,59.0975,54.1378,-4.9597
ScSeS,29.8539,26.3311,-3.5228
LuTl2Pb,46.903,48.7134,1.8104
LiSnTe2Mo,37.2041,29.2755,-7.9285
Sc7(GaSn)2,14.1044,12.3783,-1.7261
CaYAu4,37.3148,36.7326,-0.5822
SrMn2Pt,69.4936,54.908,-14.5855
In2Sn2Bi3,35.0596,36.5093,1.4497
In2Sn2Au3,31.7393,32.8889,1.1496
In2Sb2Au3,35.2173,34.4082,-0.8091
Tm3(HfIn)2,59.7312,48.8962,-10.835
Ba2Ac2In3,26.5927,28.452,1.8593
AlI,4.3709,2.6263,-1.7446
Tb3(InHg)2,16.5451,18.6423,2.0972
TbGe3Rh,20.0518,18.889,-1.1627
CaYMgCd,14.9155,13.4579,-1.4576
AlI,0.0,2.6263,2.6263
AgAsPb2,36.7461,36.0284,-0.7177
DyY(TmBi2)2,39.297,41.3844,2.0875
TiGaAgPd2,18.6583,17.4609,-1.1974
LiTiSn2,20.3726,16.3156,-4.057
Li2LaHg2,13.7219,10.764,-2.9579
Cu(SbRh)2,33.2545,26.6008,-6.6537
Ac4IrRh,57.8775,57.7693,-0.1082
YMgV3,83.1692,63.6921,-19.4771
Sc2SCl,43.5417,39.9016,-3.6401
La2PmYEr2,28.4869,25.4075,-3.0794
Ti6ZnGa3,0.2561,3.6229,3.3668
LiSn3C,26.055,22.2316,-3.8234
AcY(ErS3)2,45.7193,37.8684,-7.8509
LiSi3Sn,19.9271,14.3211,-5.606
CdInBr2,15.1283,15.5971,0.4689
CdOsBr2,21.948,22.8256,0.8776
K3TiTe3,19.0889,18.6689,-0.4201
NdSm2YCd4,20.3418,22.7147,2.3728
PtRhPb,63.8774,51.8016,-12.0758
PrYHg6,5.1878,4.6079,-0.5799
Rb2In2I,13.261,13.6005,0.3396
Ti3GaPt,1.3108,2.7092,1.3984
Pr2Ho2In3,14.9118,17.0473,2.1355
ThIn2Ni,22.5978,25.5716,2.9739
AsP2W,80.0368,68.2265,-11.8102
LiIn2Sn,13.5137,14.5175,1.0038
HfAlCu,46.2763,34.7831,-11.4932
V2GaCu,64.1746,50.9508,-13.2238
Hf2MnPSe,88.4482,64.7658,-23.6824
Sr3InC,25.3424,21.7015,-3.6409
AlZnGa2,7.8963,8.4871,0.5909
PmLu6,33.9331,34.7545,0.8214
La3Y4ThBi8,43.6669,42.6907,-0.9762
In2NiGe2,12.4839,11.54,-0.944
Y2Er(TmS2)3,38.8675,31.9816,-6.8859
Pu4PdRh,47.0873,45.9046,-1.1827
Li2NbN2,21.3521,16.4227,-4.9294
CdBiP2S,29.2346,29.2178,-0.0168
Sn(GePt)2,43.4137,34.3356,-9.0781
Li2IrAu,22.7223,24.6812,1.9589
Yb2InOs2,34.5857,37.1902,2.6044
Th2Zn,30.3206,36.6633,6.3427
Y3Er(TmS2)4,38.5468,31.637,-6.9098
NaZr3Mn,86.4172,74.225,-12.1922
LiIr2Au,34.0913,36.8832,2.7919
Cd4Fe3,11.1985,13.3122,2.1137
Hf(GeRh2)2,51.6836,37.3699,-14.3137
Y5(ErTh)3,32.7133,34.72,2.0067
CaPm3Zn4,14.1963,14.8928,0.6966
Mo2P2Rh,22.1922,15.572,-6.6202
Zn2MoOs,21.6653,21.2195,-0.4458
ZrReW,59.3245,58.7457,-0.5788
ZnMo2Os,26.946,24.0557,-2.8903
DyPHPd2,6.9386,11.9016,4.963
UTc6,90.4604,76.2047,-14.2556
InNi6Ge,10.3594,10.6753,0.316
Sb(MoP)2,29.8541,22.5329,-7.3212
Tb2YMg6,9.5283,10.7382,1.2098
NdGa4Pb,18.2318,19.652,1.4202
K5AgF8,9.5875,8.7327,-0.8548
Sr(ScTe)2,18.9233,17.5893,-1.334
YErPu2,46.9974,49.1535,2.1561
Hf2SnCl,72.1857,52.0745,-20.1113
La2Y2HoEr,26.6397,24.8754,-1.7643
Na2ZrInF,34.7538,30.1209,-4.6329
NaAs3Au,21.5807,21.1369,-0.4438
LiFeBr3,20.0012,17.0612,-2.9399
ZnInGa,9.7429,11.8744,2.1315
Er4Cu2Ir,24.5431,27.9762,3.4332
Eu2Sn3,16.0485,18.2306,2.1821
GdTlIn2,29.5826,31.2742,1.6916
CdPb2Se,43.0689,41.3779,-1.691
ZnInGa,9.75,11.8744,2.1243
YThPa2,53.8777,56.6056,2.7279
Pr4OsRh,5.1146,5.9871,0.8725
Cd2PbSe,34.6747,33.1325,-1.5422
EuCdSn,16.5492,19.2228,2.6736
Pr4RhAu,6.9723,6.0285,-0.9438
SrAcCl,34.0862,34.7641,0.6779
Th4PtRh,58.6166,54.41,-4.2066
LuAgAu2,39.3899,39.3289,-0.061
Na(LiTe)2,21.1572,19.0441,-2.1131
BaSrLaNbO6,1.0622,1.507,0.4448
Rb3Tl,12.8026,12.5295,-0.2731
Pu3Pt,63.6919,58.2242,-5.4677
Dy3PuS4,45.716,38.8214,-6.8947
Sr2Sc2Tl,14.1354,16.2001,2.0647
Cs3Rb,18.6671,18.5357,-0.1314
CsPdIO2,38.4406,32.5096,-5.931
RuBr2,20.1125,18.1331,-1.9794
RbSb3,30.5692,26.5426,-4.0267
Rb2TbAuCl6,4.8411,6.8065,1.9654
TbNpBi,42.6879,46.4027,3.7149
LaYErTh2,39.9693,39.9725,0.0032
CaTiGa4,7.0285,8.7096,1.6811
LiScBr2,12.778,12.351,-0.427
BaSn4Rh,16.7982,16.265,-0.5332
BeSiN3,22.4276,17.8197,-4.608
Sc6Ni2Te3S,23.2774,21.5587,-1.7187
BaCa3Pb,13.4055,14.5419,1.1364
TaMnO4,44.0289,41.4802,-2.5487
CrOs3Ru,34.6333,33.9294,-0.7039
RbZr(PSe4)2,42.9282,34.4974,-8.4307
K(ZrSe2)6,61.0516,48.7505,-12.3012
K(Er3Te4)2,33.7921,32.2342,-1.5579
Ce2NiRh,28.5677,25.8744,-2.6933
Cd2PbBr,32.9108,31.409,-1.5019
K(Ho3Te4)2,33.3596,31.8054,-1.5542
K(Ga2Pt)6,33.684,25.6457,-8.0383
CdPb2Br,41.2775,39.8421,-1.4355
NiPdW3,30.8029,32.6044,1.8015
AgSbW,83.0887,63.8721,-19.2166
AgSbW2,72.0725,59.4447,-12.6279
ScSnP3,25.1813,20.7219,-4.4594
Ta2BiRu2,22.8041,29.2606,6.4565
TaPt4Rh,73.4854,55.3002,-18.1853
Rb3SrIn,8.4356,8.0241,-0.4114
Pr3NdFe,10.9242,9.5884,-1.3358
Ac3(LaHo)2,50.5502,47.946,-2.6042
Rb2Ca2Sn,7.2578,7.7229,0.4651
ZnRe2W,43.053,39.1337,-3.9193
Ag2SbW,70.1504,54.0049,-16.1455
ZnReW2,34.3059,34.4395,0.1336
Al4InP,16.9287,15.2269,-1.7018
AgSb2W,73.6682,57.1694,-16.4988
Er4Cu2Pt,31.0375,30.3243,-0.7132
Nd3ThNi,29.3573,30.7916,1.4343
Zn2ReW,34.7688,29.8967,-4.872
TlGe3Sb,25.6686,24.8586,-0.81
ScTc2S,99.558,80.5882,-18.9698
ScGeS3,46.427,35.5986,-10.8284
Er4TlCu2,25.8359,28.2666,2.4307
Li2SnPd2,13.2457,12.8367,-0.409
HfAs2PSe,62.2833,49.2142,-13.069
TiGaMo2Ru,15.6333,15.5289,-0.1044
Ac4TlRh,45.0066,45.1822,0.1756
La2Pm3Hg2,25.0826,22.8264,-2.2562
Tb4TeRh,15.2759,17.1953,1.9194
Ni2BPb2,20.4322,22.7054,2.2732
InMo4Cl7,9.7305,5.3937,-4.3367
HfPaSe2,75.8794,60.5624,-15.3171
La2Pr3Nd2,19.7708,17.5113,-2.2595
BeZnP,11.9416,7.7126,-4.229
Pm5YEr3,20.8501,23.4148,2.5647
Pr5(HoTm6)2,21.2601,22.561,1.3008
Na2Ti2O5,15.8435,13.3642,-2.4793
La2Sm3Th2,44.3983,42.5478,-1.8506
NaCdIn2Cu,18.1632,18.0199,-0.1433
Pr5(Er6Sc)2,18.0909,19.0698,0.9789
La2Tb2Sm3,33.0995,30.9913,-2.1081
Ti3GaI,9.9385,11.4636,1.5251
La2Tb3Ir2,38.0022,35.9501,-2.052
Pr2FeP,15.1842,13.6016,-1.5827
CsSnBr3,12.0435,12.8584,0.8149
CuMoRu2,25.3698,21.9705,-3.3993
TbY2ErBi5,39.6753,40.9318,1.2565
DyTm2(InPd)3,21.5794,23.7689,2.1894
CsAgSn2,24.6077,23.9805,-0.6272
AlRuPb2,31.6033,33.2251,1.6218
TaMnBi2,56.1665,54.305,-1.8615
Tb7YEr3,26.453,28.0827,1.6298
MnH6Rh7,31.7166,23.1757,-8.541
TbHoEr14,29.1833,30.35,1.1667
Sm12HoEr7,26.9534,28.4781,1.5247
La5SmY2Er,33.2281,26.9864,-6.2417
Ba6Ge2NO,4.7134,5.2404,0.527
RbTlPb4,40.7914,42.2896,1.4981
LaPrY5Er2,14.6058,15.1124,0.5065
PrNd3Fe,22.679,21.3873,-1.2917
RbTmTl4,39.1937,40.3246,1.1309
Al2CdC,22.7014,18.7147,-3.9867
Be2TcSe,36.5143,30.0974,-6.4169
Be2TcSe,36.6507,30.0974,-6.5532
ZrInSe3,46.5734,39.7115,-6.8618
Al(RhAu)2,33.8949,30.8226,-3.0723
Be2TcSe,36.4646,30.0974,-6.3671
DyY2HoEr6,21.268,23.9176,2.6496
Al2Zn2Au,11.002,12.9439,1.9419
AgOsI2,27.2065,29.8374,2.631
ScZn4Cd,9.0021,10.2839,1.2818
TlCuAgSe2,33.5177,29.816,-3.7017
TaPRu2,17.9044,17.0499,-0.8545
Pm2DyY6Er,13.4247,15.6412,2.2165
InTe2RuN,45.1881,40.9078,-4.2803
Tl2InTe,40.8384,41.075,0.2366
TcHgOs,45.7592,42.2107,-3.5485
Sc2ZnCd,9.3191,11.2225,1.9034
HfNpRh4,68.044,52.2334,-15.8106
NaZrF6,19.4019,17.5868,-1.8151
ThZrPb2,67.2363,64.991,-2.2454
Th4RePb,51.5278,53.8697,2.3418
BeTcSe2,47.5417,38.2978,-9.2439
BeTc2Se,58.9724,49.6041,-9.3683
BeTc2Se,59.3169,49.6041,-9.7128
Sr2Tl2Au,32.4074,33.5489,1.1415
PaCdRh4,46.7169,38.0564,-8.6605
Pd2PbC,38.3165,34.5463,-3.7702
RuPb2F,27.7423,30.5447,2.8024
TaIr2Ru,29.989,32.722,2.733
MnNbB2,60.2907,50.6465,-9.6441
Sc3ZnCd,9.0309,10.6468,1.6159
Sc2ZnCd,8.9046,11.2225,2.3179
YEr5TmTh2,31.2347,33.9754,2.7406
Mn2TcP,73.5989,60.3928,-13.2062
ErNpRh4,48.9219,40.3858,-8.5361
Nb(NiW)2,39.7736,38.4783,-1.2953
Sr(GeOs)2,23.1068,25.3266,2.2198
ThNbB2,52.1376,48.2159,-3.9217
DyEr3In4,23.9066,25.3175,1.4109
Ta2PdRu2,14.8105,21.5618,6.7512
HfPaRh4,58.5926,44.2402,-14.3524
Ta2Pd5,15.8129,20.6339,4.821
PmSm(PuS2)2,41.9692,36.632,-5.3372
Y6Ho12In,23.7933,24.3717,0.5785
Pr2ScPa,15.922,19.0368,3.1147
LiTaSbRu2,23.9646,24.1101,0.1455
TlPAu2,33.551,35.5848,2.0338
NbV2B,99.8907,79.5336,-20.3571
RbTbCdCl6,6.3194,7.3573,1.0379
Ta(CuRu)2,10.8656,14.7924,3.9268
BaLa6,44.9777,32.2929,-12.6848
TaGaRu2,40.0535,31.4602,-8.5932
KTa2Ru,20.0117,23.2961,3.2844
Sc2CuS,43.1479,36.7153,-6.4325
TlP4Au,19.0345,21.2596,2.2252
Nd2Dy5Ho,22.2092,24.6851,2.4759
Li2Zn3Cu2,5.2261,6.3153,1.0892
Ta2IrRu,37.1785,37.6486,0.4701
ZrTa3Ru,47.1568,46.1255,-1.0313
TaSiRu2,27.0971,24.5168,-2.5803
TaSnRu,0.0,8.9018,8.9018
CaTa2Ru,16.1005,23.6707,7.5702
TmSb2Au,36.7572,35.7564,-1.0008
NdSmYEr3,20.5586,23.5011,2.9425
Ta2PdRu,26.5616,31.5836,5.0221
CaTa2Ru,24.1287,23.6707,-0.458
Li2TbPt2,40.5837,31.9496,-8.634
Er4OsRu,22.214,26.4292,4.2152
ThTaRu2,33.4311,38.199,4.7679
TaRu3Br,24.8017,24.762,-0.0396
TaRu2Rh,40.6285,37.3391,-3.2894
TaAg3Ru,31.7227,27.9224,-3.8003
La2SmYEr5,27.7535,26.5554,-1.1981
AcLa2Sm4Dy,36.9453,34.6526,-2.2927
CdCo4Hg,7.5338,9.2941,1.7603
Li2Ag3Ge2,16.0972,13.821,-2.2763
CaTaRuI2,26.4769,25.036,-1.4409
Ga3PtPb,34.4905,29.7034,-4.7871
Os2RhBr,36.7282,35.8076,-0.9206
TaAs2RuAu,29.0601,26.5484,-2.5118
TaGaIrRu,50.7177,42.935,-7.7827
Mg4InTe,12.044,12.4758,0.4318
Ta2GaSbRu,63.2599,50.9681,-12.2917
TaSnRuRh,41.4669,37.9391,-3.5278
TbY2(ErSe2)3,34.2421,30.3329,-3.9092
Pm2SmYEr5,21.8323,24.2091,2.3768
Ta4RuPb,36.4393,39.7945,3.3552
Cd2GeIr,23.1309,25.095,1.964
Nb2SiB,74.8267,60.4573,-14.3695
RbTaRu2,35.6919,34.4889,-1.203
Sm2Y(ErSe2)3,35.0221,31.1302,-3.8918
La2FeSb,46.956,35.867,-11.089
TaIn2Ru,23.07,26.3325,3.2624
Ta2CdRu2,16.1565,22.7037,6.5472
PrVFe,48.6361,38.8406,-9.7955
Rb2Pt2Se,42.459,30.618,-11.841
Ta2TlRu,35.7154,39.3635,3.6481
ScSeS,41.9709,26.3311,-15.6399
SrLaLu2,33.2241,31.8179,-1.4062
Ag2RuBr,28.3347,23.0524,-5.2822
Pm2AsRu,33.1902,30.285,-2.9052
Ta4SiRu,32.3297,33.1178,0.7881
Nb3BSe,94.9356,75.5989,-19.3367
TaMn2Ru,54.0193,50.2532,-3.7661
K3ZrTe3,32.2496,29.4081,-2.8414
TaSnRu,25.3423,8.9018,-16.4405
SrGeRu,0.0,2.2572,2.2572
TaOsRu2,27.8162,34.4817,6.6655
FeSbOs,42.6361,39.4309,-3.2052
NiSe7,43.7133,34.7905,-8.9228
TeMoAs4,18.5685,17.4402,-1.1283
TaIrRu2,32.5419,33.2774,0.7355
Li3TaPb,19.3615,20.2601,0.8986
TaCrRu,54.6086,20.8285,-33.7801
FeSbOs2,42.5634,35.9842,-6.5792
Ta2As2Ru,17.2612,18.0874,0.8262
HfTaRu2,52.6359,45.9138,-6.7221
MoAsAuBr2,20.2226,20.7601,0.5375
Sc2Sn4Pd,26.5476,21.693,-4.8546
TaRuBr2,24.7177,23.3193,-1.3984
Pu3NiBi,55.391,56.4405,1.0496
Cs2LaAs2O7,13.8512,14.0724,0.2212
TaTlRu3,29.8755,31.7296,1.8542
ZnHg2Ge,2.9177,4.4392,1.5215
TaRu2Rh,40.5605,37.3391,-3.2214
CoMo2Br,18.9883,18.0448,-0.9435
TbSm5YEr2,20.3562,22.4677,2.1115
Ta2RuAu,34.2725,38.7108,4.4383
TaSb2Ru,35.7844,34.4386,-1.3458
Li(NbRu)2,55.0111,47.9084,-7.1028
YTa3Sb,49.3956,44.6616,-4.734
FeSb2Se,44.4934,36.1572,-8.3362
MnCu2Br,34.6136,28.9746,-5.639
TaMn2Ru,62.9603,50.2532,-12.7071
CeSm2PaSe4,40.2468,36.4734,-3.7734
Ta6GaRu,51.0728,48.5912,-2.4816
TaRuBr4,21.5437,20.6096,-0.9342
Nb(AgB)2,36.8515,30.3639,-6.4876
TaSbRu4,24.6324,26.5296,1.8971
TaAlCr2,32.8663,24.83,-8.0362
Ni2RuSe,19.6168,19.7153,0.0985
CaTaRu4,17.8214,21.0993,3.2779
Cu2Ge2Ru,4.9397,7.3754,2.4357
Ta2AgRu,30.8882,32.5243,1.636
Pr2YErTm5,17.2131,19.1488,1.9357
Zn3GaRu,0.4465,4.0959,3.6493
Nb4SiB,87.9802,70.4969,-17.4833
Sr2TaRu,28.848,25.1498,-3.6982
TaIn2Ru,23.3613,26.3325,2.9712
GaTc3Br,61.2301,50.9471,-10.283
TaIr2Ru,38.8963,32.722,-6.1743
TbAl4CuPt2,27.8311,22.7707,-5.0604
TaOsRu2,27.6086,34.4817,6.8731
TaCrOsRu,51.1368,43.6894,-7.4475
SrCa2Ag,15.3209,13.0739,-2.2469
BaZr2Pb,62.6952,55.8473,-6.848
PrNd2Ge,13.129,15.8683,2.7393
Na(BiSe)2,42.3126,38.1213,-4.1913
Ta2GaRu2,46.5043,40.2176,-6.2867
TaP2IrRu,33.8426,26.2089,-7.6338
CdAg2Br,23.6247,20.4669,-3.1578
Ag2AuBr,30.3894,27.6688,-2.7206
TaCuRu2,12.4353,17.5809,5.1456
TaRu2Br,25.7268,25.6344,-0.0923
TaRu2Rh,40.4821,37.3391,-3.143
TaSbRu,33.185,34.009,0.824
FeSbPb,46.0469,41.4659,-4.581
Ta2CdRu,27.291,31.3181,4.027
CaSbSe2N,46.7089,36.5946,-10.1143
AgMoOs2Br,33.0633,30.0625,-3.0008
AlPIr2,39.3793,37.8511,-1.5283
Ce2YErBi5,40.552,41.8051,1.2531
NaCdSnPt,38.2199,32.1268,-6.0931
TaAg2Ru,29.6684,28.437,-1.2314
Nb2Cu2Ru,55.7273,47.5683,-8.159
TaAsRu,0.0,4.0332,4.0332
TaRuRh2,48.5768,41.9308,-6.646
TaInRu,24.3299,28.0816,3.7518
Ba2CaOs,12.1517,14.8005,2.6488
Ta2RuAu,34.0845,38.7108,4.6264
TaGa2Ru,32.6843,29.9383,-2.7459
GaSb3Au,38.8135,34.5874,-4.2261
Ga2SnAu,17.8156,20.3122,2.4965
RbYZr,25.2345,22.3285,-2.906
Tm4InRu,9.7927,14.2897,4.497
Th4InRu,27.9882,33.4113,5.4231
ZnReI2N,69.8166,62.8902,-6.9264
Pr2DyEr6,17.0875,19.3706,2.283
Pr3DySn3,5.4116,8.5551,3.1435
PaTaRu2,33.8558,38.7869,4.9311
Li2In2Sn3,15.9473,15.8325,-0.1148
SrTlPb3,44.6136,45.5064,0.8928
FeSbPb2,48.0571,44.3653,-3.6918
K3Bi5Au2,37.0286,37.5202,0.4915
FeSi2Ir,11.6207,11.7632,0.1425
Y3P5S12,31.9525,23.4289,-8.5235
K2PuF6,7.301,9.4748,2.1738
SiIr2S,32.6402,31.9106,-0.7296
AgAu2Br,34.5413,33.8287,-0.7125
NaWI3,27.4923,26.7922,-0.7002
Pm(Y4Er3)2,20.9206,22.3271,1.4065
Li2Mg2S3,11.5719,7.1627,-4.4092
TmPu3S4,57.4298,54.021,-3.4088
Sr(Cd3Sn)2,19.8672,19.6573,-0.2099
Na3(LiHg)2,13.0988,10.813,-2.2857
Be8V3Ir,35.4388,30.0742,-5.3647
TlZnPt2,59.3643,47.6041,-11.7602
TmHCl4,2.1339,3.4235,1.2897
SnP2SO,38.3122,33.2206,-5.0916
Na6Ca,21.9092,18.1948,-3.7144
Hf2CdFe,70.0288,52.5148,-17.5141
EuZnAg4,26.82,22.7563,-4.0637
BeZn2Ir,24.5023,18.2331,-6.2692
Li2Ni3Rh2,16.8149,14.2342,-2.5807
CsScCdO3,42.8735,40.8457,-2.0278
FeSbPt,58.1281,44.8291,-13.299
NdZn3Pt,23.3821,20.228,-3.154
Be2ZnIr,18.2717,16.9,-1.3717
MnPS2Cl,45.5893,37.8092,-7.7801
Sc2VCd,39.5387,34.092,-5.4468
Sr2Ga4AgGe3,11.8586,11.8093,-0.0493
Sr2GaAg3Ge4,16.5479,15.1493,-1.3986
GdSiAg,16.625,15.9347,-0.6903
Li2Ag3Pd2,15.0743,13.9893,-1.085
Li2Tm2Pd3,15.8477,17.8509,2.0032
Li2Sc2Au3,21.6199,23.2138,1.5939
Sc2GaBi,17.8638,20.1493,2.2854
SrLa2Pb,42.2641,35.0641,-7.2
NbCr4Sb,37.056,31.0291,-6.0269
KHoSe2,27.7882,24.0054,-3.7827
NaNpCuO5,4.1705,8.4041,4.2336
RbCaSc2,11.7952,7.228,-4.5672
Na2GeTeO6,10.0992,8.8527,-1.2465
Nd8Y5Er,21.3878,22.7712,1.3834
Cs2BeSnS4,33.5055,26.1753,-7.3302
YPu2Au3,49.423,51.2661,1.8431
LiAcPrZn,16.8577,18.7597,1.902
Nd2YEr4Mg,23.428,24.8395,1.4115
Cs3Sm(GaO3)2,19.6232,17.5237,-2.0995
Nd2YEr2,19.9487,22.3402,2.3915
Li2Sc2Ag3,15.2022,13.2788,-1.9234
La2Be2Rh5Pb,33.0793,25.2534,-7.8259
Hf3BePt3,90.6099,66.9877,-23.6222
Na4Ca4Be4FeSi7(O6F)4,19.8104,17.6376,-2.1728
TlCdCu4,16.2686,17.5505,1.2819
CuPAu,25.5513,24.2957,-1.2557
BeSiPS2,36.3722,30.0144,-6.3578
AgSnI2,22.0544,21.6023,-0.4521
SnHg2Rh,14.6176,13.6528,-0.9648
ScSi2Ag,33.6299,27.3766,-6.2532
Tl2Cr,37.4036,37.5071,0.1034
CeCoNi3,23.5148,19.3009,-4.2139
Sn2HgRh2,22.9365,19.901,-3.0354
HfCrNi2,44.8446,35.4758,-9.3688
Nd2YEr7,27.0237,29.0937,2.07
La3YEr2,38.2583,32.2211,-6.0371
Rb3YEr2O6,10.6701,10.7897,0.1196
Sn3PtI,36.2472,31.1087,-5.1385
SnHgRh,23.0623,19.4154,-3.6468
Cs2BaNpO6,10.4765,12.1402,1.6638
Ce3TlZn8,15.3652,16.4226,1.0574
Sc2SiAg,30.8725,27.9258,-2.9467
ScSb2SI,42.9377,37.4961,-5.4416
Li(AgTe)2,29.2255,25.9635,-3.262
LiTb2Sb,24.1094,24.3215,0.2121
La3Y2Si3,36.8129,27.873,-8.9399
TmCoGe2Rh,20.1654,19.2806,-0.8848
Ac2CoAgSn6,24.3615,25.5773,1.2159
FeSnP2S,30.7606,28.734,-2.0265
NbBr2N,42.519,35.1578,-7.3612
GdScSiAg,36.7358,32.8846,-3.8511
MoPAu2,37.4449,34.4074,-3.0375
Li2Zn2Pt,20.7277,16.8679,-3.8598
Li(CBr)2,35.2758,25.6656,-9.6102
SrMoAu,25.8281,27.7,1.8718
Nd2YEr,23.1464,26.5312,3.3848
Zn3BSb,18.4333,14.8901,-3.5432
PmPrTm2,20.3489,22.376,2.0271
NaCa2O,30.7665,27.5589,-3.2076
LiCaEuZn,11.7551,11.679,-0.0761
ScSiAg2,33.2138,28.1457,-5.0681
Ag2SI,32.7224,26.4671,-6.2554
CuAgSb2,32.1224,28.0993,-4.0231
Re2AgGe,44.4813,39.8715,-4.6097
HPbF5,8.2861,11.92,3.6339
ReAgGe2,36.5991,30.8695,-5.7296
Rb3MnZn,23.2785,18.4564,-4.8221
Li2ZnGa2,2.4035,4.038,1.6345
SrTb2Pm,22.9778,25.6968,2.7191
Pr2As4Ir3,21.0226,20.1177,-0.9049
Ir4OsRu,41.5237,42.7587,1.235
Li(PrAg)2,6.9494,6.0981,-0.8514
AgSbAu2,39.4919,38.0685,-1.4234
LiNd2ThTe5,29.9605,30.3257,0.3652
Li(NdAg)2,18.7225,17.978,-0.7445
AlCd2Si,24.5016,22.3957,-2.106
OsRu2Se,23.6852,26.503,2.8178
Mn2Si2Pb,56.2991,46.0743,-10.2248
Zr2TlNi2,45.0128,42.5273,-2.4856
Li(AlAu)2,18.4106,19.4718,1.0612
CuW2Se,25.9629,28.7079,2.7449
SmEu2Zn,22.392,23.5663,1.1742
Zr2Te2I,54.4534,48.6823,-5.7711
Y2TlHg,37.5938,33.7874,-3.8064
Ba2LiPt2,36.8383,26.7648,-10.0735
AcTmZn3,20.567,23.3483,2.7812
BeTe2Pb,34.3421,33.6799,-0.6622
RbNa2CuF6,5.7325,5.8945,0.162
BaSnMo3,28.9078,21.6903,-7.2175
BaSr2Mo,12.856,12.5925,-0.2635
Ce2Zn4AgAu3,24.9649,25.3892,0.4243
EuZrZn2,35.3145,32.6316,-2.6829
SmY2(Er2Tm)2,25.8062,27.8541,2.0479
CdCu2P,13.8482,13.8447,-0.0036
Tb2CI,27.6494,27.4774,-0.172
Cd3TcGe,33.0588,29.8682,-3.1906
NaZr2TaPd,56.1534,49.7745,-6.3789
YCrC2,51.9381,43.4114,-8.5268
ScV2Cu,83.5023,64.2613,-19.241
Sr3RuC,26.5029,23.0437,-3.4592
Ag3PbI6,28.2168,26.4242,-1.7927
CoAu3,34.2747,37.3831,3.1083
Ba2SrFeGe,13.9885,12.3558,-1.6327
SrRu2C,22.2949,21.2692,-1.0257
Pa4RuPt,52.7301,51.584,-1.1461
ZnGeIr2,24.5778,26.4851,1.9074
AcEuZnPb,37.9167,39.8104,1.8937
ThZrZn3,33.0291,33.6186,0.5895
SmDy2HoTm2,23.8764,27.6921,3.8158
Tb2Ho2Sb3,34.0746,32.7365,-1.3381
AlSiMo2,25.09,21.9349,-3.1551
VRe2I,51.359,47.3869,-3.9722