Formula,E_hull_DFT (eV/atom),E_hull_ML (eV/atom),Delta (ML - DFT)
AlZnPt,33.1011,26.6423,-6.4588
SmY2ErSc,15.8926,17.1062,1.2136
Al2SiMo,24.1027,19.554,-4.5487
SrOsSe2,38.4791,34.6107,-3.8684
SrOs2Se,37.7598,36.7125,-1.0473
FeSb2TeN,35.8737,29.8274,-6.0463
CsCa2IrN,23.346,19.3963,-3.9497
Al2SiMo,23.8878,19.554,-4.3338
Sm2Y(ErSc)2,20.3748,21.6138,1.239
SmYEr3Th,26.8381,30.474,3.6359
CaPuSi4,25.6799,20.9257,-4.7542
NaTlVGe2,45.7735,38.6996,-7.074
Li(CuAu)2,21.5125,23.2454,1.7329
Li(CoGe)2,1.244,3.5331,2.2891
Sc2GaCl,22.2391,22.7621,0.5229
SmYErSc,20.6047,21.275,0.6703
Sm3YErTh,25.3437,28.3266,2.9829
Al2BiAu2,27.2288,29.603,2.3742
TiCoS4,50.3785,37.1806,-13.1979
TaPdRh,34.0688,32.5722,-1.4967
Li(TbCu)2,9.2462,11.7227,2.4765
SiGeAu,19.492,19.6816,0.1896
Li(ZrSb)2,51.131,44.4156,-6.7154
Al4SbSe,17.7164,15.9286,-1.7879
CaEuYEr,24.2532,23.2003,-1.053
NaTeOF2,26.916,23.3736,-3.5424
DyHo2Si,24.4511,25.0979,0.6468
GaGeAu2,24.7536,27.4433,2.6897
EuZnPd,0.0,2.6619,2.6619
Na2TiAgC,35.6949,26.3823,-9.3126
AlSiBr,24.3746,20.5165,-3.8582
LaThSc,34.8193,37.2039,2.3845
Zn7Tc,18.2308,17.013,-1.2178
SmYErAl,32.7769,29.9445,-2.8324
Y(TiPd)2,18.4984,17.4663,-1.0322
Pr2AgGe3,3.9369,4.8091,0.8722
Li2ZrSb,35.6748,30.9823,-4.6925
ZrCu2Pb,36.56,36.5197,-0.0404
ZrCuPb,35.8508,36.2328,0.3821
LiZrSb,47.897,41.5216,-6.3754
KBa2Br2,5.5604,5.2628,-0.2976
Rb2TcP,28.201,23.1425,-5.0585
ZnGeIr,25.3474,22.5156,-2.8318
RbTc3P,65.71,51.7693,-13.9407
Sm(YEr)2,17.1795,20.4448,3.2653
Tl2IrPt,59.024,54.0638,-4.9602
Sc2OsS,36.2929,35.9348,-0.3581
Hf2Be2Co5W,33.0492,24.5819,-8.4673
Tb4TeRu,9.3775,14.1334,4.7559
CaDy2YHg4,10.2802,10.5485,0.2683
Tm8Tl2Ag,34.2522,34.9896,0.7374
In2IrBr,24.054,25.2863,1.2323
CuNi7Ge4,13.5826,10.3653,-3.2172
NaLiCu4,8.6901,9.2671,0.5769
BiSb3Te,47.2504,41.9303,-5.3201
NaFeIF2,18.6488,16.4724,-2.1764
Na2MnNbAl,61.0547,51.6558,-9.3988
Li(GePd)2,10.4529,12.4424,1.9895
Ce(ZnPt)4,40.8897,31.0238,-9.8658
ZrVSi,55.0957,45.6733,-9.4224
K(AgRh)2,30.9882,24.1344,-6.8537
Ag2PbAu2,38.782,38.0011,-0.7809
Li2Tm2Tl3,30.4475,32.1276,1.6801
Pa3BePt5,71.7363,58.2959,-13.4405
CrIrW2,33.6044,36.4221,2.8177
YAl2HgBi,27.7325,24.0035,-3.729
Ga2SnSb,20.6892,19.9919,-0.6973
TlSbAu4,44.2727,44.5417,0.269
AcYTmHg,36.4946,35.708,-0.7866
Li(AcNi)2,28.2034,29.8622,1.6589
Sm2ScTi,15.2389,17.4938,2.2549
AlSbRu,21.2451,21.297,0.0519
Dy3Y2Si3,27.6448,24.8975,-2.7473
BeCu2Mo,23.3396,15.6304,-7.7092
NbSn2Sb,57.4637,49.3753,-8.0884
TbScS,41.0545,38.5335,-2.521
CuMo4P,26.0098,20.4077,-5.6021
YAl2Hg,20.0353,16.1184,-3.9169
NpMn6,96.0826,79.2671,-16.8155
YHg,17.4814,17.9143,0.4329
La(ScSb)2,26.668,20.7876,-5.8804
CeMg6Mn,17.632,15.7913,-1.8408
FeSbW2,40.7908,39.3475,-1.4433
Li(BiPd)2,28.6701,30.6648,1.9947
BaNa2LiCd,15.343,13.538,-1.8051
RbTc3I,63.906,51.9928,-11.9132
GeMoAs,4.4522,10.5902,6.138
Na2GaPdF6,11.8988,11.3624,-0.5364
AlSnSe,23.7461,21.7902,-1.9559
Ge3MoAs,11.2595,12.8363,1.5768
Zn2SiOs2,17.2681,20.0283,2.7602
ZnCd2Ge,14.0263,15.0772,1.0508
Cr3SnW,19.2517,18.5231,-0.7286
TlOsPt2,68.2225,57.1758,-11.0467
Zr3Bi2Sb,67.9752,62.0392,-5.936
SiAsSe,44.5697,39.4667,-5.1029
ZnSi2Os,20.5718,18.8648,-1.707
NbCdCu,41.3246,39.1769,-2.1477
RePd3I,24.8034,25.3091,0.5057
Tb4SbOs,25.5034,27.4866,1.9832
Be2Ru2Pb,11.4864,16.1655,4.6791
Tb4SbIr,25.7681,27.6258,1.8577
AgBPb,24.467,24.7664,0.2994
Na2AlIrN,20.5236,19.3985,-1.1251
TlOsPt2,68.3927,57.1758,-11.2169
ZrTi3Hg,25.3732,21.6791,-3.6941
Tc2PIr,64.9411,54.8308,-10.1104
Y2HgBr,28.3206,23.3863,-4.9343
Li3(CdBi)2,21.0251,22.125,1.0999
Y2HgBr,27.5343,23.3863,-4.1479
Li3(CuAg)2,11.044,9.9373,-1.1067
K3PdCl,11.1008,10.2785,-0.8223
YHg(AsO4)2,8.3908,8.4672,0.0764
POsS2,41.1692,39.234,-1.9352
SmSb2Ru,25.834,26.5311,0.6971
MoAuSe2Br,35.1014,31.436,-3.6653
LuAgRh2,40.341,33.4256,-6.9154
TeRh2C,51.2634,38.9447,-12.3187
Zr6TiBi3,69.2614,60.1288,-9.1326
Be2CuMo,19.9302,14.4852,-5.445
Si2RhBr,22.5595,17.0116,-5.5479
Na(CdOs)2,25.407,31.2246,5.8176
FeMo2Br,14.6917,12.4211,-2.2706
La(ZrBi)2,64.8144,58.2104,-6.6041
LaZrBi,61.2342,54.7797,-6.4546
Be2CuMo,20.021,14.4852,-5.5358
NaOF,5.4211,5.0311,-0.3899
SiRh2Br,30.9389,23.5009,-7.4381
AlSi2Sb,29.8742,23.9469,-5.9273
BeCu2Mo,23.4807,15.6304,-7.8502
BeCuMo2,24.3771,18.001,-6.3761
TaSnRu,16.8783,8.9018,-7.9764
Li2PmTl2,25.2415,26.7401,1.4986
Ca2LaAgTe4,31.4338,28.1453,-3.2885
CrAgRh2,34.7884,26.5989,-8.1894
NdY(NiAs)2,43.6245,37.9003,-5.7242
AcRu3,0.0,0.1052,0.1052
SrCoGe3,4.4782,7.0566,2.5784
Zr2TcBi,85.7381,75.4842,-10.2539
TiGeIr3,30.5669,31.8803,1.3133
LaZr2Bi,69.7672,61.9869,-7.7803
TiBiIrOs2,41.1308,41.6959,0.5651
TlIr2Pb,48.2036,50.6124,2.4088
KTi2GeIr,16.6361,17.015,0.3789
Ti2IrOs2,0.0,7.0878,7.0878
TiIrAu,32.9987,29.4902,-3.5085
Y2TiGa3Pt4,47.7918,35.7669,-12.025
Ti8Sn2Ir,17.4963,15.6947,-1.8016
Sc2Cu4S5,39.7592,29.6126,-10.1466
TiCd2Ir,22.2314,24.3757,2.1443
SbPdN2,20.585,19.1703,-1.4148
Ti2BiIr2,22.1071,27.5099,5.4027
LiTiIrPb,25.0214,27.9677,2.9463
TiGe2Ir,17.1212,19.8627,2.7415
SiSn2Sb,23.5687,20.3411,-3.2275
Ti2CuIr,14.5839,18.3678,3.7839
TiCd3Ir,23.2075,23.6523,0.4447
TaIrW2,39.1859,45.1911,6.0052
LiPaIr2,38.1574,42.4485,4.2911
TiMnRu2,33.8529,32.3399,-1.5129
Li2TiIrSe,20.531,18.5935,-1.9375
DyY3Hg2,25.0109,21.3176,-3.6933
KTcNi2,25.8763,24.1927,-1.6836
Mn2Cu3Au8,46.0347,43.7334,-2.3013
LaWCl2,24.768,22.2395,-2.5285
Sr3CaMo,15.3711,14.0117,-1.3595
ReRu4Pt,32.7042,31.8916,-0.8126
MnCu4Au,24.2446,23.6485,-0.5961
Ag(RhW)2,59.4027,48.2349,-11.1678
Na(OsSe)2,35.9461,33.6161,-2.33
ReRu4Rh,33.0399,32.1301,-0.9098
UTaRu4,28.2552,32.2076,3.9524
NaPm4Se5,34.7018,30.2712,-4.4306
Li(TbRh)2,29.7015,25.4184,-4.2831
PuURu4,34.1562,37.7365,3.5803
K2RhW,29.1078,25.6065,-3.5013
Li(ScS)2,32.8445,29.2711,-3.5734
YTi3Tc,54.0282,46.4235,-7.6048
Ti2IrAuI,31.3016,27.375,-3.9266
Cs(BaNa)2,13.3813,12.7403,-0.641
HfBRu3,28.9376,25.4524,-3.4852
LiLa(YHg2)2,19.7726,16.0805,-3.6921
CrCdTc2,47.3215,40.8473,-6.4742
Cs2Ag(TeO3)2,15.744,14.6715,-1.0725
NaOsSe3,42.3911,35.4849,-6.9062
AlMo2Pb,32.025,27.8382,-4.1869
Rb2SnMoBr6,16.3225,12.9311,-3.3913
AcThZn3,27.1768,30.1243,2.9475
Cs4LaU3O12,18.5805,19.3794,0.7989
AlMoPb2,32.0616,32.0286,-0.033
Mn2Si2Ge,40.8108,32.3558,-8.455
Ga(SiTc)2,44.4078,36.1834,-8.2244
Ti2TeIr2,19.399,23.5905,4.1915
Sr2Al2Pb,17.7046,18.7996,1.0951
Hf3BRu,90.7246,65.2466,-25.478
U2BiSb,59.1662,60.2277,1.0615
Ca3Sb2H,7.1881,5.9167,-1.2715
YZr2Bi,59.8388,56.4023,-3.4366
Y2TaHg,43.4721,35.7629,-7.7093
CsErCu4,13.8479,15.3543,1.5064
ErZrTlCu,46.2331,44.3679,-1.8652
ErZrCu,44.7177,41.7343,-2.9834
Ge2RhAu2,27.874,26.8395,-1.0346
Y2HgSb,35.9064,30.6231,-5.2833
Ac4RuAu,55.6832,55.3018,-0.3813
Y2TaHg,43.354,35.7629,-7.5912
GdErScCu,33.4421,30.7001,-2.7421
MnNiI3,55.8529,49.8241,-6.0288
Zr3MoBr,65.0489,55.7953,-9.2536
LiMo2Ir,24.5355,22.3632,-2.1723
Er3CuBi,24.9319,27.8749,2.943
NaCa2F,10.1144,9.7487,-0.3657
NaZrO2,6.7829,5.0558,-1.7271
Y2ZrHg,49.8362,41.9352,-7.901
Y2TaHg,43.4635,35.7629,-7.7007
NaZrF4,17.525,16.1777,-1.3473
ZrFeBr,37.1702,33.6627,-3.5075
Y2TcHg,74.3225,61.8985,-12.424
ZrAgI6,32.9296,31.2572,-1.6723
RbSm(MoO4)2,14.8566,12.8094,-2.0472
Tl8Sn3,42.7484,43.2383,0.4899
LiFe3Ru,32.1747,23.4355,-8.7392
Ca2NdAgTe4,28.099,26.7785,-1.3205
RbCrSeN2,25.9375,21.1115,-4.826
NaCaF2,16.7571,15.2477,-1.5094
Tc2PbBr,70.8875,60.4222,-10.4653
UTlAgTe3,40.9329,41.5448,0.6119
BiRu3Br,28.1754,27.4562,-0.7191
ZrSc2Bi,40.8383,39.6768,-1.1614
V3C2,91.3189,68.9199,-22.399
Sr2YHg,19.3553,17.6115,-1.7438
YTl2Hg,37.9199,36.3014,-1.6186
TaRe2,26.3634,40.2251,13.8617
CaDyAlIn,13.5654,15.8642,2.2988
AcTl(PO3)2,17.7177,16.9983,-0.7195
Y2NiCl,81.2912,74.4484,-6.8428
ErCuSn,34.3199,33.3814,-0.9385
KNbHg2,36.8497,29.3451,-7.5045
Ag2Rh,33.9992,26.8894,-7.1097
ZrBiSb3,58.6589,50.763,-7.8958
PuTl(PO3)2,10.7338,9.7454,-0.9884
YHg2Os,23.1686,22.2406,-0.928
ScW2F,27.4828,26.9447,-0.5382
SrCd2Pd9,18.2295,18.9641,0.7345
YHgOs,30.9739,29.8933,-1.0806
YTl(PO3)2,12.766,10.725,-2.041
Hf3ScSn,98.7175,69.5401,-29.1773
CsY(PO3)2,14.6145,11.0253,-3.5892
YHg2Pt,34.5946,26.3851,-8.2094
YHgSb2,34.6401,29.2308,-5.4094
Ag(SbIr)2,36.1088,34.7918,-1.317
LiTmLu2,24.7487,27.3185,2.5698
ZrBiI,43.1529,39.8762,-3.2767
DyY2(InHg)2,23.7504,22.2561,-1.4942
YSc2Hg,15.0903,14.6442,-0.4461
Zr3BiRu,74.7126,65.5133,-9.1993
Y2ScCoHg,30.3519,25.0618,-5.2901
Zr2AgGe2,42.968,38.511,-4.4571
YScHg2,13.4857,10.899,-2.5867
Dy3(YHg2)2,16.5051,15.7893,-0.7158
BeTc2Pb,60.6499,53.2601,-7.3898
CsTmSn,21.6558,25.3353,3.6795
BeTc2Pb,60.5481,53.2601,-7.288
Dy(Y2Hg)2,32.8761,27.9008,-4.9754
Dy2OsRu,27.9943,31.5128,3.5186
V2CdMoBr,62.9574,50.0191,-12.9383
PdAu5,38.6902,41.7192,3.0289
La4CoIr2,42.5593,35.5336,-7.0257
MgTeF2,32.0952,27.8169,-4.2783
CrCd2Ir,24.1983,24.1539,-0.0444
Zr2W2I,51.6604,50.1127,-1.5477
Cs3Ni3P2,19.0926,17.7778,-1.3148
Tl3GaSb,41.6715,40.3223,-1.3491
Ag2PdAu6,40.421,40.3904,-0.0306
CeZn3Pt,26.9604,23.3326,-3.6278
ZrW3I,49.6739,48.5026,-1.1712
GaSbPb,35.3181,33.9717,-1.3465
SrV2Rh,74.6126,57.6146,-16.9979
Tl2GaSb,38.7976,37.6482,-1.1494
EuAs2Ru,20.4139,18.2738,-2.1401
EuAlPt2,51.7055,40.6143,-11.0911
DyYHg4,12.6296,11.9768,-0.6528
CuPS2O,33.2861,24.8457,-8.4405
Rb2NaZnBr6,9.3844,9.2094,-0.175
Sc5SeS4,43.6187,38.8716,-4.7471
ScSbSI2,38.3021,34.3802,-3.9219
EuTlAs,29.1892,30.8856,1.6964
CdP7,6.4127,6.7916,0.3789
Dy2YHg,26.1609,25.7116,-0.4494
Pm2B3Ir2,19.3718,22.0742,2.7024
Y2MnIn2,29.7695,25.8776,-3.8918
TaIrW2,39.217,45.1911,5.974
TbEuAs,13.3764,16.707,3.3305
NaCa2Si,17.2473,13.7671,-3.4801
NaSnPtAu,45.301,38.9381,-6.3628
Bi2AsPPt,50.3577,43.4812,-6.8765
TiCd2Sb,19.4336,20.327,0.8934
Eu2AsO,15.3068,18.4535,3.1467
EuAsSe2,48.0659,43.7053,-4.3607
TbEuAs2,17.4309,20.1894,2.7586
Eu2As2Pd,9.7865,13.2342,3.4477
PmEuAs4,15.0552,16.529,1.4738
PrEuAs2,9.6086,12.4318,2.8231
Eu2AgAs,23.759,23.8716,0.1126
Eu(AsOs)2,26.0298,28.1972,2.1674
RbSb2Pd5,23.636,21.5105,-2.1255
Y(ZnAg2)6,23.4066,18.8357,-4.5709
Eu2SnAs,21.0007,23.2557,2.2551
Eu2AsAu,27.5057,29.1892,1.6834
Eu2BiAs,29.3885,31.649,2.2606
EuBi2As,36.974,38.667,1.693
LiLa2YCl,53.1101,45.4236,-7.6865
EuAsP,24.8665,23.2425,-1.624
Eu2MgAs,18.8869,18.7236,-0.1633
Na(CuBr3)2,11.7097,10.2707,-1.439
Dy2Be4Si3Ir,26.8101,23.6082,-3.2019
Eu2AsBr,17.978,19.8855,1.9075
EuVAs2,43.5725,37.7973,-5.7752
EuNpAs2,28.6572,31.4834,2.8262
EuInAsAu,25.8415,27.4489,1.6073
Li2In3Ag2,18.7954,16.2303,-2.565
PrEuAsAu,29.7118,27.7906,-1.9213
TlPb3F,43.8264,44.5199,0.6935
GdZnGe3,12.7106,14.2203,1.5097
Li2Ag2Sb3,28.1428,23.6243,-4.5184
NaCdBi2,35.5324,36.1136,0.5811
YbSnRu,7.6115,14.2251,6.6136
Dy2YHgO,27.7101,25.945,-1.7651
IrOsPd3,29.7203,30.9875,1.2672
GdTaRu2,24.339,28.1657,3.8267
Ba2Li2Al3,13.6516,9.2991,-4.3525
AgSbSeN2,27.5133,22.3919,-5.1213
Li2Ac2Au3,34.3922,36.3072,1.915
TbSm(YHg2)2,18.5195,17.7112,-0.8082
TaOsRu,32.008,37.6705,5.6625
TaPRu2I,32.0622,25.0749,-6.9873
Y10(HgPb)3,31.8661,28.3786,-3.4875
Pr2Sm3Pt2,34.2217,28.0777,-6.144
PaFe4Ru,43.9799,33.4746,-10.5053
BRh,12.4131,14.9249,2.5118
ScPdCl2,19.6222,18.3701,-1.2522
Sr2SeBr2,20.78,18.7847,-1.9953
Mo2RuI,24.6915,24.6072,-0.0843
Ce3Sn3PdPt2,37.4668,31.8033,-5.6635
La3PuPd4,36.5486,32.6752,-3.8734
PrNpPd6,20.882,22.6769,1.7949
Y3Sn2Hg3,25.2112,20.3453,-4.8658
TbHfPSe,54.0655,43.6249,-10.4406
Mg2Cu2Rh,21.1765,14.6701,-6.5064
Ce2PrAg6,25.7036,21.7923,-3.9112
MgNiAgN2,30.1447,22.8131,-7.3316
K2HgRu,10.7542,10.5539,-0.2004
K(Rb2Na)3,8.7261,7.0281,-1.698
MoPS2I,39.4661,30.2815,-9.1845
TcNiN,44.5851,35.6957,-8.8894
HfPaSe2,76.1883,60.5624,-15.626
Ni3PdN,9.2456,12.3169,3.0713
InSbAs,24.9681,23.6539,-1.3142
HfZnSeBr2,44.7404,33.8026,-10.9377
YMnSe,53.3123,44.4354,-8.8769
ScAg4Sn,30.357,23.8033,-6.5536
Pr3NdAg4,16.7072,14.445,-2.2622
LaSiIr3,41.5012,37.6868,-3.8144
Hf6AlSn,111.023,78.6483,-32.3746
BaPI2N,22.5595,18.9861,-3.5734
Ac2PdAu3,42.586,45.124,2.538
HfPaSe,85.8709,70.1583,-15.7127
MnCr2NiN,58.8185,50.2435,-8.575
BaCrTe2,27.5875,25.895,-1.6925
InPd6Au5,30.0371,31.4549,1.4178
SrCaBeAl2,16.2482,12.4099,-3.8384
Pm6Pr4Sm,14.4302,16.1706,1.7403
YZrP2,42.7828,35.376,-7.4068
K2HgRu,10.7812,10.5539,-0.2273
Li2Hg2Pb3,25.0609,25.0967,0.0358
DyY4Hg,20.83,19.3173,-1.5128
CaSe2I,48.5398,39.1029,-9.4369
Pr2PdO3,15.8342,11.6948,-4.1393
AgPtAu14,48.9485,47.7212,-1.2273
PuScAu4,43.7946,45.5859,1.7913
BaBe2Te,12.22,11.525,-0.695
TcHg2Se,35.7239,29.1958,-6.5281
ScUAu4,43.3543,45.4651,2.1107
Ce2Y(CdHg)2,19.5791,19.6576,0.0785
Y3Hg3Pd4,22.8131,19.0946,-3.7185
ScAgBr4,14.478,13.1184,-1.3597
Co2NiAgN,68.4571,56.6262,-11.8309
ScTlBr4,17.5477,17.5971,0.0494
Ni2PtN,34.2517,26.3006,-7.9511
SrLuAg,25.9985,25.3583,-0.6402
Na2TlAsPt,39.7205,33.1527,-6.5678
GaSnRu2,16.2377,18.4393,2.2015
NiBrN2,9.6591,7.5332,-2.126
Li2Ni3Ir2,15.2053,17.2807,2.0753
Re2NiN,104.8337,86.8149,-18.0187
PuZrHg2,42.3924,39.6251,-2.7672
TaMnRh2,58.2157,48.9221,-9.2935
PaAl2ZnPt4,53.9647,43.2519,-10.7128
CaSnMoBr2,25.8003,19.2276,-6.5727
K2Ag2Pd,18.4443,15.7521,-2.6921
Y4Cd2Hg,23.7039,22.4333,-1.2706
Ta3Mn2Rh,59.4061,53.785,-5.621
Nd3In3Ir2Pd,25.7752,27.7922,2.0169
Ba2SrBr,7.8551,7.7385,-0.1166
Li2Pu2Pt3,58.4531,48.7982,-9.655
RbAgSb2,30.9968,25.9809,-5.016
Rb2CdCF6,12.301,10.547,-1.754
Ce4ScCd,20.609,22.7285,2.1195
PmNd2Ag3,23.6877,22.5448,-1.1428
FeMoAs2Br,26.0633,23.2733,-2.79
Pd9Pt,24.9411,24.2925,-0.6485
Sc2AsRhPb,34.2854,28.0002,-6.2852
LaW2Cl,33.2166,32.985,-0.2316
RbGe,0.0,0.9621,0.9621
Ce4Ni2N,21.9242,20.1485,-1.7757
RuPb2Se,42.467,41.6645,-0.8025
Be3NiSb,14.4387,11.8063,-2.6324
Ni3AuN,14.6176,13.7893,-0.8283
NaLaCeIn,30.2147,27.191,-3.0236
PrYRh,19.9365,16.8534,-3.0831
CaTlAg,29.1744,27.7461,-1.4283
AcPm2Lu,37.0925,39.7235,2.631
BaThTe3Pd,28.5746,29.5498,0.9752
Ce4ThSc,28.5231,31.5312,3.0081
LiAc2(BrN)2,26.1208,27.4257,1.3049
ZnCoBr2,16.4416,12.5155,-3.9261
Nd2Ga2Hg3,8.8882,10.0444,1.1563
GaPbF4,9.4946,11.6953,2.2006
CeAg(PO3)2,5.7314,3.1958,-2.5356
CePd9,18.1065,19.7861,1.6796
AcZrTe3,51.0752,49.3792,-1.696
Mo2IrRu2,17.5044,18.8486,1.3442
SrCrPt,34.1578,24.9294,-9.2284
HfZrTc2,106.4933,84.9946,-21.4987
CuP2SBr,22.3949,20.2813,-2.1137
Tl3PtBr,48.0743,43.5241,-4.5501
CeScHg4,4.551,5.8647,1.3137
Ba2Li3Cu2,5.8318,5.1831,-0.6487
PrNdZr,39.5203,36.5653,-2.955
RbNi2IrN,19.1098,19.0232,-0.0866
LaMn2V,95.2201,74.6144,-20.6057
Pd5Pt6W,55.2004,43.7585,-11.4419
Y2HgS4,39.6531,29.2274,-10.4257
RbIr3Pt,46.0376,41.7073,-4.3303
Li3(CdPb)2,20.5368,21.3715,0.8347
Ni2PtBrN,31.7214,23.6261,-8.0953
HfVIN2,61.193,45.2381,-15.9549
ThPd3,15.5248,25.0488,9.524
Dy3YHg4,15.9824,16.3863,0.4039
Tl(NiTe)2,29.3243,29.0675,-0.2568
BaCaOs2,23.3167,25.5365,2.2198
BaCa2Os,13.3996,15.4476,2.0479
SrBe2Tl,21.0787,19.0244,-2.0544
CaNiIrN2,24.9745,18.6823,-6.2921
CaGdPb2,34.3857,36.2456,1.8598
SnTeI2N,29.7776,26.7603,-3.0173
CsCuSnTe2,41.4881,37.8018,-3.6863
NbBiMoBr2,47.9174,42.222,-5.6954
NiPdRh2N,32.2732,25.3613,-6.9119
Ac2CdIrPd,36.0408,38.5734,2.5326
Li3(LaNi)2,16.5825,13.1981,-3.3844
CoTcNi2N,66.1071,57.238,-8.8691
TeMo2BrF,31.1382,27.6666,-3.4716
Y5CdHg6,22.1614,18.1727,-3.9886
LaOs2Ru,38.6568,38.4156,-0.2412
HfCoRu2,45.3301,37.4944,-7.8357
BePS2Br,26.951,23.8596,-3.0914
TiMoIr2Br,27.5416,27.1516,-0.39
Y2Cd2Hg,27.6304,24.6102,-3.0202
NiAgRh2N,34.0597,24.5568,-9.5029
Pu3In3Ir2Pd,41.7726,43.4881,1.7155
Tm(Pd3Au)2,25.3203,27.4391,2.1188
YNi2P,43.1199,38.7167,-4.4032
RbHg3Pt,16.98,11.812,-5.168
BaAl,12.2166,8.4083,-3.8083
CdTcP2,29.8747,26.5857,-3.2891
Cd2TcP,34.2502,31.1691,-3.0811
Th5Ag,60.3089,61.6521,1.3432
Ni2AgAuN,25.1647,21.9407,-3.224
YCdHg2Rh,24.1556,19.7014,-4.4542
NiPdWN2,28.5794,24.9081,-3.6714
BaP2PbO6,5.1445,4.3381,-0.8064
Li2Pa2Ir3,37.517,40.4491,2.9322
AcP2BrO6,6.4927,5.6983,-0.7945
Er3PuPd4,28.0939,30.3205,2.2266
CoIrSe3,39.755,34.0589,-5.6961
SrZr2Br,57.716,48.2568,-9.4592
TmCuHg,12.0655,14.2386,2.1731
TePI3,24.9521,23.0932,-1.8589
CrNi2PdN,23.8348,21.0752,-2.7597
Ce3Tl3PdAu2,37.2178,38.663,1.4452
Li3(HgPb)2,17.5275,17.4946,-0.0329
Sr2ScCdRh,22.2767,18.0853,-4.1914
Y2Cd2Hg,28.1076,24.6102,-3.4974
Sr2Mg3Pd4,7.3436,9.2257,1.8821
CaAl2Os,13.358,16.1146,2.7565
CsAc2CuO5,9.6721,11.9107,2.2386
DyEr4Sc,25.18,27.2946,2.1146
NaCuBrF2,13.3334,12.004,-1.3294
NaInMo2Se,26.7258,24.0074,-2.7184
Y2CdHg,29.8214,25.7133,-4.1081
K3Rb12Ag5,7.0291,4.782,-2.2471
NiPd3N,20.0078,19.0167,-0.9911
TeRuRh2,50.5172,40.8169,-9.7003
ZrAlTc,42.1516,55.7848,13.6332
Tm6Ag5Pd,29.4258,28.0537,-1.372
Rb2SrMo,7.0352,7.6183,0.5831
Ni3PdN,9.2897,12.3169,3.0272
Li2Cd2Au3,25.5696,26.6168,1.0472
K(SnRu)2,11.8259,15.5079,3.682
ScUGa4,17.5509,20.0411,2.4902
Eu2NiN,23.9929,22.132,-1.8609
Y3(Cd2Hg)2,25.0289,22.1203,-2.9086
ScGaI4,16.6568,18.3719,1.7151
Y3Cd2Hg,25.1889,23.2081,-1.9808
ThScHg4,11.4396,13.0261,1.5865
HfZr2Os,86.3463,74.0138,-12.3324
RbOs,15.5942,15.9299,0.3356
YCdHg,8.0307,10.7917,2.761
RbMn2Fe,48.7004,38.5577,-10.1428
NaInSe,30.246,25.9724,-4.2735
Li(DySi)2,20.6296,19.674,-0.9557
Cr2NiGeN,24.1172,20.6186,-3.4986
CsNaHg3Pb,15.3668,15.4732,0.1063
YCdHg,22.9849,10.7917,-12.1932
Cs2FeNi(CN)6,50.4503,40.55,-9.9003
Li(PmSi)2,19.6277,18.9843,-0.6434
Li(SiPd)2,17.1184,15.695,-1.4234
Y6Bi3Pb,23.4857,26.5144,3.0286
AlBiSe3,40.3279,34.7494,-5.5785
ErTlAg,29.8361,31.9592,2.1232
Li(SmAu)2,24.1375,26.9592,2.8217
BeSi2Tc,36.1278,30.2743,-5.8535
Be2SiTc,33.1348,28.9207,-4.2141
La3ZrTi,54.2746,40.6078,-13.6668
PaCo4Ru,17.8958,20.7375,2.8416
CaLaPm,23.4015,22.632,-0.7694
Y3Cd2Hg3,23.4128,20.264,-3.1488
K3(AlTe2)2,19.3285,18.3908,-0.9378
Ce2Mg2Pb3,30.2031,32.0679,1.8649
YCdHg3,11.6094,11.0025,-0.6068
Pr2Nd(InPd)3,13.437,15.2125,1.7756
Na2In3PtAu12,42.4871,41.2962,-1.1908
ErPd7,18.7724,20.6115,1.8391
RbCaSb2,22.1085,18.1557,-3.9529
Sr2ZrTaO6,27.2455,22.0842,-5.1612
Ga2Pd2Pb,20.4832,21.0575,0.5743
YRuN,39.463,37.7115,-1.7514
YCd2Hg,21.9948,20.4204,-1.5744
CeTmSc4,12.6973,15.3088,2.6115
YPu(MnP)4,54.4743,44.9314,-9.5429
Sn(PdPt2)6,63.7442,47.2117,-16.5325
InSb2Se,39.3881,33.8771,-5.511
Mg2Ge2Ru3,10.6101,12.6288,2.0187
Th2Mg2Ge3,17.9578,21.7937,3.8359
NaZnSi2Tc,32.5417,25.5012,-7.0404
Co(CuPd2)6,16.9926,17.0026,0.01
FeP2SeS,37.597,32.4176,-5.1794
La2PuHfN4,38.8568,31.8133,-7.0435
K(GeBi)2,27.9392,28.5464,0.6072
Y2CdHg,30.1238,25.7133,-4.4105
RbLi(SO3)2,15.7889,14.0964,-1.6925
Th3Au2,51.8823,55.492,3.6097
MnCd2Pb,44.6765,41.5835,-3.0931
Sr2Ag5HgPd2,18.5162,16.2904,-2.2258
TmF2,13.1639,16.7511,3.5872
YCdHgPt,39.2256,31.8178,-7.4078
Sc2VSi2Rh5,46.4172,34.8606,-11.5565
Sc2PdRhC,30.2191,22.6217,-7.5973
Y2Cd2Hg3,19.5666,17.4893,-2.0773
Y2CdHgRu,28.0239,24.7997,-3.2242
CaHf3Se,113.6815,81.3226,-32.359
LuNiRh,16.186,18.4963,2.3102
Nd2Y(CdHg)2,19.4333,19.6706,0.2372
Li2PrHfSe4,40.1713,29.9442,-10.2271
BaHf2GeSe,70.9107,50.013,-20.8977
Ba(HfSe2)4,72.6344,53.2992,-19.3351
SrLaFe,38.0847,30.3404,-7.7443
Cs2SrSn,19.0159,20.6402,1.6244
Hf2Rh2Se,77.7305,55.0575,-22.673
AlSi2Os,28.668,25.9405,-2.7276
Cr2NiCl,23.9508,20.8276,-3.1232
KPd3W,21.511,22.3708,0.8597
Gd2HfSe,62.3539,50.5259,-11.828
TbScIr,35.6475,29.2114,-6.4361
Na(Ga2Ir)6,19.978,20.7272,0.7492
ReAgPt2,62.4951,50.1718,-12.3233
CsMgUO4,11.7717,12.854,1.0822
TlI3Br,26.4449,26.6024,0.1575
Sc3SiC,25.2911,20.572,-4.719
Pr(Tm2Th)2,36.5201,38.1704,1.6502
Re2Ag2Pt,47.3025,41.3862,-5.9163
LiPa(SbO3)2,25.4444,24.7397,-0.7048
LiTa(SbO3)2,29.7896,28.9442,-0.8455
Re2AgPt,50.5187,46.2265,-4.2923
Pm2DyYHg4,12.1356,12.3875,0.2519
Pr3Sm5Sc,15.0573,14.7294,-0.3279
Tl2IBr,33.3504,33.7126,0.3622
Ac3ZnCd,40.7809,42.721,1.9401
Ac4PrPd15,25.2646,26.6419,1.3773
AlSi2Os,28.7571,25.9405,-2.8166
Dy2Y2Hg3,21.8842,20.0421,-1.8421
SrAcGd2,34.3715,36.5555,2.184
VOs2I,53.1457,49.266,-3.8797
RbRu,0.0,32.8309,32.8309
Al2SiOs,25.8308,25.0337,-0.7971
RbTlTc2,61.291,52.4724,-8.8187
HfVTeSe2,82.3576,62.4677,-19.8899
Pm3ZnCd,16.4892,19.0642,2.575
Tb(Pr2Tl)2,15.597,17.3054,1.7084
AlSiOs,25.8908,26.6415,0.7507
ZrCrOsSe2,50.0348,41.7175,-8.3173
Ga(TcNi)2,34.4605,31.1692,-3.2913
RePt2W,64.3572,54.7876,-9.5696
Rb2TeAsBr6,19.8697,17.9454,-1.9243
Sc2NbCd,43.0657,37.8414,-5.2244
GaTcNi2,28.2396,26.6444,-1.5952
RePtW2,51.6928,49.7575,-1.9353
NbPdCl2,41.5856,36.1229,-5.4626
Ga4I5,16.2273,17.0759,0.8485
BaLi2Ac,20.4172,20.6427,0.2255
Sc2NbCd,42.8178,37.8414,-4.9764
K2AuI,22.7206,22.5215,-0.1991
Tb2TmHg4,11.8156,13.1404,1.3247
Ga2TcNi2,18.5542,18.6876,0.1335
Nd2Sm3Mg2,18.5299,20.7737,2.2438
Tl2IBr4,24.0163,24.3883,0.3719
Re2PtW,52.2952,50.5608,-1.7344
Ba4Sr7Ac,13.4104,14.1416,0.7312