Formula,E_hull_DFT (eV/atom),E_hull_ML (eV/atom),Delta (ML - DFT)
MnSbIr2,57.8835,51.5964,-6.287
La4Ag(SbN)2,35.9534,25.3863,-10.5671
Ni3AgSe,19.9849,17.8532,-2.1317
InPtN2,28.4738,26.2659,-2.2079
Y2CoHgAu,38.7598,31.9921,-6.7678
Sr3NpO8,7.6358,9.9942,2.3584
Ac2Np(Pd4Pt)3,37.4877,34.0365,-3.4512
Ac4Cd(PbN)2,41.9646,43.4109,1.4463
Er4TcSe,24.5592,26.1292,1.57
Ca2LuOsO6,24.3915,24.2761,-0.1153
Ge3MoRu,14.0581,14.6676,0.6095
SnGePb2,33.9466,34.9039,0.9574
Sn2AsPd3,15.7677,15.1287,-0.6389
CoCuTeI2,33.3905,28.3403,-5.0502
La2YHgOs,38.9863,29.8355,-9.1509
LaAlMo2,31.4663,23.6216,-7.8447
LaAl2Mo,23.2476,18.013,-5.2346
CoGeSbTe2,30.6854,27.0506,-3.6348
NaAl2Pd,11.7884,12.5489,0.7605
Si2GeTe,20.8749,17.6775,-3.1974
Ba4ZrAl,23.8975,18.7313,-5.1662
Pd2PbBr,28.4729,27.366,-1.1069
Ac8OsPt3Cl4,51.4232,47.1945,-4.2287
Tb2Pr3Nd7,17.6876,19.6597,1.972
Be2NiF,5.0389,5.5342,0.4954
CeZnInPd3,12.5653,15.8459,3.2806
Ta2SnC,39.855,38.1206,-1.7345
SrBiI2O,36.4156,33.4209,-2.9947
CoSiSbTe2,31.5423,26.2872,-5.2552
K5Pm2F12,8.4738,9.6365,1.1627
GdTlAu2,43.1728,45.181,2.0081
TaNi3C,23.3684,22.1281,-1.2403
CrPI2,39.2356,32.9832,-6.2524
HgTeW2,30.7642,32.7306,1.9664
PmYHgBi,31.9402,30.5166,-1.4236
CaY2HgC,33.1157,24.9152,-8.2005
CrRuPb,19.2078,22.3163,3.1086
P2AuI,22.3256,21.4424,-0.8832
YInGaHg,19.4278,17.3232,-2.1045
AlHg3Pt,18.8671,13.5858,-5.2813
ZrSc2Cl,44.8467,40.7413,-4.1053
PAu3I,35.5537,34.6967,-0.857
LiMg2Pb5,30.5257,32.0654,1.5398
H4SeS,13.8826,10.8292,-3.0534
InCoTeI2,23.596,23.5302,-0.0657
Er7Ru2C11,37.8928,31.0533,-6.8395
Nd2PuSb,41.1083,40.4537,-0.6546
Eu6Np,35.5875,36.39,0.8025
CrP3Au,33.8042,29.0291,-4.7751
Gd2(Zn2Ge)3,11.6272,12.899,1.2718
ScCuAgRh,38.4372,29.5369,-8.9003
TbYHgPd,24.0781,21.9657,-2.1124
Cr2PAu,40.8464,35.6631,-5.1833
Co2TeRuBr,22.3136,19.8273,-2.4863
In2(AgAu2)3,37.9604,36.5752,-1.3853
Na(AgTe)2,34.0458,29.483,-4.5628
ScNb3Au,96.9684,81.8842,-15.0842
GdGeN2,0.3917,4.4385,4.0468
Er5(Pd6Pb)2,23.7552,25.3225,1.5673
Y2BeZnHg,26.5791,17.8916,-8.6875
Y2NbTlHg,59.7194,48.8106,-10.9089
SnSb2Pd,35.5285,28.6615,-6.8671
PaTaW,47.7391,53.0806,5.3415
U6Cd3Cu2H,41.2985,43.8307,2.5322
Na2YHg,25.0446,19.2664,-5.7782
Pr3Pt7Au2,58.0549,42.9962,-15.0587
NdTmZn4,13.9888,15.8117,1.8229
TlZnInPt2,52.2634,41.3013,-10.9621
HfCo2SbTe,50.5448,39.1719,-11.3729
TbEuGa,20.9069,23.1388,2.2319
Mn2ZnAuN,58.4005,47.5572,-10.8432
NiTeP2,19.1105,17.7738,-1.3367
ZnCN2,18.6441,16.7961,-1.848
Ba2NaPt2,40.1912,28.4825,-11.7088
GaCoSb2Te,30.5053,25.3923,-5.113
Ac2Ga4SiPt3,43.7617,35.652,-8.1096
Ni2Te,13.3381,15.9985,2.6604
LaScMo,36.2235,30.9237,-5.2998
NiTe2P,28.4193,27.3327,-1.0866
CsTeNO2,43.3513,42.2189,-1.1324
Si2TePb,31.4545,27.8079,-3.6466
PSCl2F,17.1505,16.4522,-0.6983
ZrCoSbTe2,48.329,40.786,-7.543
Si2TePb,31.5523,27.8079,-3.7444
NiAgRh2,34.8585,26.5529,-8.3055
Si2TePb,31.6864,27.8079,-3.8785
Si2TePb,31.7079,27.8079,-3.9
SnSbTe2,37.5414,34.7434,-2.798
La2MoAs,32.2299,25.6623,-6.5677
RbYAgHg2,17.719,12.7766,-4.9424
Y12Ho5Er,18.7514,20.685,1.9336
LaMoAs2,21.113,19.7402,-1.3728
LaMo2As,23.3968,21.4938,-1.903
CrNi3Te,23.3792,21.6541,-1.7251
LaMoAs,25.3484,22.5974,-2.751
NiTeOs,30.8357,33.0352,2.1995
Ba2Zn2As,4.8779,4.4638,-0.4142
TlZnTeN2,37.287,33.6725,-3.6145
AgIrW2,71.3215,61.3661,-9.9553
AcPdPt,56.6084,49.4811,-7.1273
Pr9Y4Tl11,24.6288,25.2343,0.6055
RbBaHf2,73.8553,52.1291,-21.7261
Tl3GaTc,51.2425,48.4365,-2.806
Ag2IrW,70.147,56.5399,-13.6071
SnSbTe,35.9027,32.4843,-3.4184
LiTh2ScS4,48.665,42.7991,-5.866
CaCoTe2F,33.9834,29.5347,-4.4487
Ni(BiTe)2,36.0738,36.125,0.0513
ZnTcN2O,44.836,35.5471,-9.2889
Cd2ICl,14.6903,15.6012,0.9109
Na(CeTl)2,31.427,33.2134,1.7863
TbNb2,103.4395,88.318,-15.1215
RbBaSe4,31.4759,25.4793,-5.9966
Pm9Pr11Y4,10.8579,11.4813,0.6234
Sr3MgTc,27.6986,24.5992,-3.0994
RePtSe4,53.5715,43.9287,-9.6428
NaCuBiS2,35.6344,30.2378,-5.3966
TlFePS2,48.0066,38.4539,-9.5527
In3SbRh,31.7874,26.6391,-5.1484
AcYLuHg,37.2346,35.2965,-1.9381
MgCo2BTe,16.8253,14.7261,-2.0992
RbU(CuP)2,22.3276,20.8804,-1.4472
In(NiAu)2,25.527,27.2141,1.6871
In2NiAg2,18.8207,17.2838,-1.5369
AcLaPa,56.162,54.3529,-1.8091
La2Pm3TaN6,16.9436,16.6714,-0.2722
CeNdSc2,15.0326,17.2304,2.1978
La2MoPb,42.9163,36.2026,-6.7137
LaMo2Pb,34.5339,32.4016,-2.1323
LaMoPb2,38.3073,36.9655,-1.3418
ZrCrBr2,46.2966,39.3369,-6.9597
La4SbOs,49.4381,37.0845,-12.3536
YTlCuHg,30.5458,27.1425,-3.4032
Y2NiHgPb,65.2146,56.3622,-8.8524
NiTeC2O,37.4644,27.7486,-9.7159
DyHf(UAs2)2,42.8253,39.4815,-3.3438
Y2HfAgHg,55.929,39.9648,-15.9642
Li2YHgIr,19.8905,17.4163,-2.4742
PaCuTc2,65.08,58.9303,-6.1497
AcMoPt,49.2897,44.5023,-4.7874
InNiTe,23.1765,24.1478,0.9713
NiAuF2,17.396,19.8634,2.4674
TcNi2Te,37.1768,34.5632,-2.6136
SiNiTe2,26.7625,24.3346,-2.4279
NiTe2Os,33.6249,34.4716,0.8467
NiSbTe2,39.1031,33.6621,-5.441
Na(InSb)2,30.6408,26.2576,-4.3832
Rb2Ba2Te,6.479,6.6208,0.1418
TcPtSe4,62.2954,49.2873,-13.0081
PrTiAl4,3.4273,4.1214,0.6942
Na2CaLa2,29.2375,21.8182,-7.4193
NiAgTe2I,29.9604,27.5819,-2.3785
HfTiNi2,22.6878,16.4777,-6.2101
SrCaSc2Rh,20.8151,14.2176,-6.5974
CaScRhAu,29.4143,24.9408,-4.4735
Ac4CoTe2,49.094,49.2078,0.1138
BaLaSi4,2.6952,-0.0,-2.6952
BaDySi4,-0.0,-0.0,0.0
ZrAl4Ge,26.4311,22.7512,-3.6799
CeAgBi2,36.2671,37.24,0.973
CoB2Te,1.056,6.5158,5.4598
Ni2AgTe2,21.6473,21.1162,-0.5312
SiSe2N,28.8586,23.4067,-5.4519
Rb2NaTe2,21.6693,20.2858,-1.3835
Tc2AsRh,54.5774,45.2369,-9.3405
MoSBr2,18.9082,18.0188,-0.8894
NiTe2Pt,40.1192,35.0124,-5.1067
TcNiTe2,40.6759,37.8335,-2.8425
Si(SeN)2,23.1935,18.7794,-4.4142
CeErSi4,18.3494,15.0712,-3.2782
NiTeC,31.1457,24.8132,-6.3325
CaHoSi4,3.3117,1.6681,-1.6436
La2CoTeAs,36.3341,27.3307,-9.0033
Ni2TePt,31.0777,27.8944,-3.1834
Ac2Tb(PtO4)3,22.6225,20.1461,-2.4764
NiTe6Ir,37.6874,36.6321,-1.0553
SrErAu2,33.6361,35.6399,2.0037
AcEuAlPt,45.8035,40.8565,-4.9471
YHgBiF2,22.5443,20.322,-2.2223
YZrV2Hg,82.9506,64.2452,-18.7054
Ni2TeAu2,26.0394,28.5686,2.5292
Ba2NaSb2,22.0404,18.3858,-3.6546
SiMo3Br,16.1716,16.4341,0.2625
FeNiSbTe2,45.4984,36.6377,-8.8607
CoTeAsF2,29.5869,24.7183,-4.8686
CeHoSi4,18.164,14.9084,-3.2556
CsPrPu2O8,15.1571,14.7239,-0.4332
NiSbTe2Ir,40.3786,35.8771,-4.5015
Rb2BSeF6,8.7496,8.0078,-0.7418
NiTeC2,44.5633,34.456,-10.1072
Hf(CoBi)2,47.0476,41.0388,-6.0089
CePmSi4,17.5493,14.2657,-3.2836
CePaSi4,24.6893,21.7741,-2.9151
Ni2TeAs2,25.456,20.9881,-4.4679
NiTeC,37.1727,24.8132,-12.3595
Ni2GeTe3,27.5777,25.1154,-2.4623
NbCr3Os4,42.0394,40.914,-1.1253
NiGeTe2,29.5443,26.9484,-2.5959
CrNiTe3,37.6537,33.9551,-3.6986
SrY2HgPd,26.4988,21.2025,-5.2963
Ac3BiP2Pt9,70.0489,53.5084,-16.5405
SmYLuHg,27.1977,25.6642,-1.5335
Te2POsN,43.7865,37.4239,-6.3625
TlNi2TeOs,31.5224,31.9031,0.3808
Nb2CoSnTe,71.4703,61.1993,-10.271
ZrTaO3,34.4345,27.5779,-6.8566
Cr3FeMo2,7.2102,8.9046,1.6944
FeNiSbTe2,45.5751,36.6377,-8.9374
Er3TlCu8,15.8794,17.4016,1.5221
PbAu2F,35.0269,38.9002,3.8734
Si2NiTe,20.033,16.6536,-3.3794
Ca2CoGeTe,15.696,14.9412,-0.7549
NiTeC,31.1866,24.8132,-6.3735
V2In2Pb,65.0682,55.2255,-9.8427
Ni2Ge2Te,21.7767,17.2687,-4.508
NiSb2TePt,50.12,37.8237,-12.2963
RbTl2InRu,46.3302,43.3707,-2.9596
Tb3(ErTm2)2,24.681,27.7955,3.1145
Tb4Pm2Er3,22.665,25.7735,3.1085
ReNiTe2,52.6516,41.2789,-11.3727
KB2F6,0.0,0.0,0.0
Rb(BaTe)2,12.6884,13.3298,0.6413
RbNiTe,12.5067,12.9974,0.4907
BeNiTe,11.3647,13.4062,2.0415
Co2NiF,28.0766,20.3409,-7.7357
NiAgTe,26.6938,24.2643,-2.4294
TeIrOsPb,39.1921,44.0801,4.888
NbCr4Ru5,25.8549,25.5041,-0.3508
Rb2Ba2Te,7.0326,6.6208,-0.4118
Ni2AgTe,21.8133,21.0208,-0.7925
NiTe2As,34.68,30.5386,-4.1415
ZrMnPt,78.2963,60.6235,-17.6729
Na2CoCSO7,10.6003,11.1642,0.5639
Rb3CoTe2O9,8.5921,7.262,-1.3301
TeIrPb2,48.2499,49.3239,1.074
TbYSiHg,28.3853,25.6904,-2.6949
AcTh(GePt)2,53.6161,46.4689,-7.1472
NiTe2Os,33.3142,34.4716,1.1574
SrCdMo3,20.5392,19.5751,-0.9642
Nb2AlCoTe,78.4259,62.2693,-16.1567
NiTe2W,34.5817,33.952,-0.6298
Cr6CoTe2,16.458,15.1927,-1.2653
NiTeAu2,35.9739,36.6106,0.6367
Zn2CoAs,14.8378,11.0732,-3.7645
TlNiTe,33.101,34.305,1.204
Hf2CoTeAs,72.844,53.5074,-19.3367
Pr(Ni3Rh)2,17.9087,14.9898,-2.9189
NiTe2Au,35.0121,34.9256,-0.0865
NiTe2Pt,45.0875,35.0124,-10.0751
GeMoRu,15.3683,17.5724,2.2041
MnBeCl,36.4755,27.6839,-8.7916
Cr3Tc,20.6863,20.3919,-0.2944
YTmHgTe,29.979,27.2806,-2.6984
Na2TlSeS,40.402,33.6958,-6.7061
Al2HgW,11.3717,13.7948,2.4231
BeNb2Ni,72.3024,61.738,-10.5644
BaGaSnPb2,29.0316,28.2057,-0.8259
Yb6NiTe2,32.6465,33.0174,0.3709
VCoTeAu2,55.7752,49.2794,-6.4958
LaNpSi4,9.0874,6.6812,-2.4063
SbOsPb2,48.813,47.6256,-1.1874
SbOsPb,46.913,46.0301,-0.8829
ScCoAu2,22.4557,25.0639,2.6082
LiHf2CoTe,68.5263,50.5174,-18.0089
TeOsPb,40.0476,42.0895,2.0419
SbTeOs2Pb,46.3504,44.8247,-1.5258
TiCoTeRh2,44.5279,34.4751,-10.0528
NaRh2Au,38.6573,31.8568,-6.8005
CsPrCrHS,16.6108,13.7344,-2.8763
Cr5Re3,20.5498,22.918,2.3681
Cr5Re3,20.5494,22.918,2.3685
CaGa4CoIr2,20.2081,19.0696,-1.1385
V2CoTeAu,72.1851,59.4413,-12.7438
LaCeSi4,22.0082,15.5319,-6.4763
SbOs3Pb,47.4334,47.051,-0.3823
Hf3Tl3NiTe8,61.3028,51.3,-10.0027
AlTc2W,57.7426,51.2175,-6.525
PrPbAu4,39.0648,40.7666,1.7018
NaCe(ErSe2)2,35.9204,32.3953,-3.5251
Hf2CoTeRh,77.7014,56.9909,-20.7106
Na2SbPb2,39.7208,36.4226,-3.2982
YTiHg2Ru,20.9238,16.9368,-3.987
AlReW2,30.1033,36.5525,6.4491
Cr4Ru3W,30.134,23.3178,-6.8162
YThHgC,43.9205,39.8219,-4.0986
TcW,66.7058,7.1851,-59.5208
Ac3Ga2SbPt9,70.1451,52.9094,-17.2357
Li(Tm2H5)2,9.4275,11.0807,1.6532
YHgSbTe2,35.8994,29.8276,-6.0718
CeGdGe2,17.5372,20.5469,3.0097
Sm5Co2Te,16.4924,19.7,3.2077
Y(AgS2)3,31.8361,21.1599,-10.6763
CuSnRh2,53.7684,42.6477,-11.1207
SbPt2Br,67.0053,50.7434,-16.262
K2FeTc,30.6098,26.0375,-4.5723
ReP2S,40.7131,36.2189,-4.4941
Al2InW,16.2761,18.9555,2.6794
Al2HgW,11.6345,13.7948,2.1604
Na(Cu2As)2,10.0941,10.7355,0.6414
TlFe3I,16.0838,17.0363,0.9525
NdScS2,43.5032,38.3611,-5.1421
Ag2RuBr,28.4003,22.2457,-6.1546
LaSmSi4,22.0515,15.5626,-6.4889
Be(NiBi)2,20.8099,23.2928,2.4829
Al2WAu,17.8184,22.8189,5.0005
NaAl3W,16.2803,16.2639,-0.0164
TmUSb,41.1131,41.9756,0.8625
V2FeP,73.4559,59.3252,-14.1307
CaScV3,83.8943,63.9222,-19.9721
Hf3CoTe,97.2861,70.6446,-26.6414
Tm2Al3W,11.9519,16.7665,4.8146
Na2ZnPb2,30.0704,29.0263,-1.0441
Li2AlW,13.8458,14.2481,0.4023
Sr2BiB,20.7998,22.6402,1.8404
Al3PdW,13.8924,15.5591,1.6667
SrBrF,7.6411,7.907,0.2658
Na(CdBi)2,34.3395,34.2596,-0.0799
YRe2HgOs,36.8893,35.7038,-1.1855
Al3WC,22.875,19.832,-3.043
TaSi4Mo,40.789,31.379,-9.41
Co2Te3Pd,22.3878,22.1132,-0.2746
Tm3CoTe,22.3402,24.6297,2.2895
LuCoTe,26.5478,28.5545,2.0067
Au2IO,44.3303,41.1179,-3.2123
U2GeH3,17.8667,21.1989,3.3322
Pu4SiAu,58.1682,58.5241,0.3559
Si4TcMo,27.4368,21.7166,-5.7201
AlPt3W,62.9065,47.1313,-15.7752
ZrFe2CoTe,40.3848,32.548,-7.8369
Al2HgW,11.3448,13.7948,2.45
NbSi4Mo,35.5586,28.484,-7.0746
CoTeSeBr2,29.4305,24.1342,-5.2962
Y2VHgBi,57.2535,46.1995,-11.0539
Tm5CoTe2,25.1791,26.0099,0.8308
AlZnW2,22.0533,26.0524,3.9991
CaAcSbPt,51.5496,42.4643,-9.0853
TaGaCoTe2,45.5515,38.6856,-6.8658
Li4AlW,9.6432,10.2436,0.6004
AlInW2,25.3192,30.0839,4.7647
AlInW2,25.3187,30.0839,4.7652
AlTc2W,57.9365,51.2175,-6.7189
Hf2Nb2Au,114.7194,89.5035,-25.216
AlPt2W,54.6734,43.8107,-10.8627
ZrCo2AgTe,37.8644,33.0539,-4.8105
Ca2AlPbW,21.6845,22.9495,1.265
Ac2TmSb3Pt4,64.2422,50.9005,-13.3418
AlRhW4,34.732,36.3304,1.5984
Hf2Nb2Re,121.9935,96.6889,-25.3045
Mg3Pa,15.8674,17.9171,2.0498
Sr11Pd4Pb9,28.2899,29.2139,0.924
ThHgOs,29.68,37.0685,7.3884
Tm5CoTe4,31.7753,32.3631,0.5877
Hf(NbIn)2,93.304,76.0036,-17.3004
UPaSi4,32.1338,29.4292,-2.7046
Cs(BaCa)2,5.4464,7.2148,1.7684
CeThPa,52.8404,56.8357,3.9953
CaAl2W,12.8043,15.1345,2.3301
CoTePd,19.77,19.7145,-0.0555
TaTe2Pb,43.6002,43.7019,0.1017
TaTePb2,46.3742,47.1381,0.7639
CaAl2W,12.9274,15.1345,2.2071
CsLa2Ta,37.4688,30.3952,-7.0736
Al(WSe)2,29.2006,28.9526,-0.248
TmCoTe,21.0534,24.121,3.0675
VSb2Rh,60.6229,46.5266,-14.0962
La(HfMo)2,74.4263,55.564,-18.8624
BeZn4Mo,11.9323,10.353,-1.5793
La2BiMo,37.5214,32.9348,-4.5866
AlSbW4,34.1864,36.477,2.2906
CsTl2BiF6,17.0183,19.3447,2.3264
Tc3IO,75.0985,61.1323,-13.9662
K2Ca2Hg15,1.3635,1.6329,0.2694
ThCoTe2,39.0335,40.1196,1.086
Y2ZnInHg,21.5335,17.7258,-3.8077
Pa(HgCl2)2,10.7529,12.4114,1.6585
K2Tl15Sb2,46.0911,45.4231,-0.668
GaCo3Te,14.6033,15.555,0.9516
ZrCoTe3,46.7217,41.6296,-5.0921
CoTe2Pd,29.3618,27.7169,-1.6449
SmCoTe,23.7092,25.2359,1.5268
LiCo3Te,13.7922,13.9125,0.1202
LiPr2NpTe5,23.4977,24.4836,0.9859
TaGaOs,48.1781,44.9506,-3.2275
Cd2CoRuO6,8.7977,8.7283,-0.0694
SrY2(TlHg)2,30.5881,27.5757,-3.0124
Y2CuHgC,36.3989,27.6239,-8.775
Y9Tm4In11,20.8774,20.5193,-0.3581
CoSb2TeO,35.5309,30.8787,-4.6522
Ba4Pu3CoO12,9.6168,11.2544,1.6376
YbZn2Co3,20.5651,14.8094,-5.7557
PrThSi4,19.5099,16.4726,-3.0373
Rb2TiInBr6,8.7579,9.0291,0.2712
InCoTe2I,27.5138,26.8685,-0.6453
YHgRh2W,39.7865,30.0857,-9.7008
AlSbW2,31.7844,32.6503,0.8658
BiTe3As,34.6258,35.0189,0.3931
Al2TlW,24.2261,26.6931,2.467
Ac3CoPd2O9,21.8673,21.5172,-0.3501
CoTe2WI,32.3183,31.1963,-1.122
HfZn2Co,43.5345,30.4686,-13.0659
SbRu2W,48.9116,39.8699,-9.0417
Li6HgAu,7.062,7.5327,0.4707
LuNbNiIr,55.8115,53.0424,-2.7691
YZnHgW2,30.0162,27.2136,-2.8027
BeGeSbW,20.5312,20.4214,-0.1099
Ca2GaSb,13.8066,12.9507,-0.8559
YSc2HgB,41.7285,34.6108,-7.1177
CoTc2TeI,53.0626,45.7939,-7.2687
Y2TaReHg,44.3554,36.5454,-7.81
ScCoTe2O,70.0917,61.7119,-8.3798
TaAg2GeC,35.0519,28.7246,-6.3274
Ta2Ge2W2C,33.121,34.2828,1.1617
Li2Si,8.8574,9.5784,0.7209
CoSbTeI2,29.1244,25.9662,-3.1582
TiCrSi4,19.6681,15.1964,-4.4717
Rb2BaCuF6,0.0,1.4253,1.4253
Y2HgBW,59.8606,48.6254,-11.2352
RbNaW2,26.0605,24.6129,-1.4476
Gd2SbPd,30.0368,29.4665,-0.5703
Kr,12.5356,12.764,0.2284
YScBeHg,16.3932,13.0567,-3.3365
Re(PS)2,50.0762,40.5673,-9.5089
ZnMoBr,11.7869,13.7342,1.9473
NiTe2I,28.5103,27.8527,-0.6576
AcPuSbPt,67.0454,59.3745,-7.6709
NiTeWI2,29.2062,27.8428,-1.3633
YHf2HgP,73.2456,51.1784,-22.0673
Pt3IBr,62.3905,45.1769,-17.2136
NiTeOsI2,28.3923,28.4847,0.0923
Th11In9Tc4,52.8868,51.5062,-1.3806
AgH4Br,4.1549,4.6551,0.5001
AcNdSbPt,55.0539,47.7015,-7.3523
PaSbMo,33.7062,36.5682,2.862
Mg(Cu2H3)2,9.4479,7.528,-1.9199
Ta(NbRe)2,80.0002,74.0278,-5.9724
Ta(NbAu)2,82.8825,75.2364,-7.646
U2Si6IrOs,31.5164,28.9697,-2.5466
TlMo2Cl,25.1848,23.8954,-1.2894
YHgBi2S,43.9307,38.0987,-5.832
YHgPdPt,39.7358,29.6055,-10.1303
NaAgSb2,33.269,27.055,-6.214
CsTl2FeF6,11.5784,13.8004,2.222
Ta2NbMo2,38.7058,39.7084,1.0026
Ac11Tl9Zn4,49.5966,50.762,1.1654
YZnSnHg,21.0484,17.357,-3.6914
Tb4Dy9Zn11,17.9544,19.3375,1.3831
CoNiTe2,43.084,36.5431,-6.5409
FeOsRu2,36.3585,32.0271,-4.3315
MnTl(CoBr4)2,24.751,21.1228,-3.6282
Si4TcW,31.3822,25.8204,-5.5618
Ti3Al5,5.0095,5.9985,0.989
KBa2Nb,36.7242,31.2739,-5.4503
LiU2CoO8,15.735,16.9545,1.2194
Re2SnP2,53.6728,43.6617,-10.0111
ReSnP2,30.561,27.2676,-3.2934
LaTaPt4,73.9415,54.5123,-19.4292
AlAuSe2,36.3491,32.4045,-3.9447
ScCoIO2,72.6952,61.3326,-11.3626
Na2Th(TlS2)2,48.253,40.8618,-7.3913
Al2AuSe,25.4232,24.357,-1.0662
PaGa(CoO4)2,12.4414,13.0649,0.6235
In2NiTe4,30.4347,30.0836,-0.351
Al2Au2Se,25.9088,26.0424,0.1336
BaPrPt4,58.0397,41.0797,-16.96
AlAuSe2,36.7378,32.4045,-4.3333
NpCo2RhO8,10.7906,11.118,0.3274
Ba2CuW,13.1103,13.9924,0.882
AlAu3Se,39.1325,37.7173,-1.4152
Ac2CoBiO8,15.1915,17.2415,2.05
AgAu2Br,34.7303,33.5276,-1.2026
PaCo(AgO4)2,11.4214,11.7637,0.3423
Sr(HgPd)3,6.8973,8.4928,1.5955
AgAu2Br,34.6102,33.5276,-1.0825
Pa2CoCuO8,16.519,16.7381,0.2191
PmCo(AsO4)2,8.6289,9.3138,0.6848
LiZr2NpS4,60.3297,48.5792,-11.7506
AgAu2Br,34.5483,33.5276,-1.0207
CaSiSbTe2,34.5576,28.182,-6.3756
K3Tl5Hg2,27.1636,27.5187,0.3551
Pm4Pr5Sc2,9.088,9.9756,0.8875
Hf3(ZnCo2)2,58.2353,40.1466,-18.0887
HfZnCo,55.0266,36.7677,-18.2589
GdYCoHg,31.2597,27.8203,-3.4394
CdCo(TeO4)2,10.4407,9.9284,-0.5123
Pm2PrSc5,11.0656,10.9131,-0.1525
PrGd3F,17.5598,18.9327,1.3729
FeOsRu2,36.646,32.0271,-4.6189
Sm2Cu(NiPt4)3,63.8928,46.1165,-17.7763
LaCo4Mo,15.5087,15.2472,-0.2616
SnRu2I,26.1056,24.486,-1.6196
Si2PdRh2,29.1992,20.8941,-8.3051
SrLa2TiI,30.8572,23.5458,-7.3115
Sc2PbI,21.0658,23.5538,2.4879
YInHgBi,30.9875,28.8841,-2.1034
YZn2HgOs,21.8287,20.4083,-1.4205
Na2Sr2Ga,16.7512,15.7246,-1.0266
Sr(ScTc)2,95.4447,79.0026,-16.4421
Pr2DySc,5.7592,7.861,2.1018
FeSnSb2Te,40.1372,33.3295,-6.8077
Y2VGaHg,48.1928,36.7062,-11.4866
BeBr2Cl,7.4444,8.7009,1.2565
ZrNp2O11,7.5105,8.9692,1.4587
Np2TiO11,1.0777,4.0484,2.9707
PaCoPdO6,8.4944,10.8064,2.3119
Hf2Sc3Ga2,45.4971,34.9359,-10.5612
RbPu2CoO8,12.6119,12.799,0.1871
PrNpCoO6,2.4931,4.4954,2.0023
CsCaIO2,41.4164,35.5051,-5.9113
Li2TeSe,22.1589,19.8149,-2.344
HfAlCu2,42.0635,31.135,-10.9285
BeBr2Cl,7.0571,8.7009,1.6438
YTlHg,33.4856,30.1312,-3.3543
YZn2Hg,13.5107,12.4483,-1.0625
MnSnPSe,42.9641,36.1678,-6.7963
InMo2I,19.2502,21.2391,1.9889
LiTe2Se,32.9269,29.5926,-3.3343
Cs3Ca(GaO3)2,25.3394,22.2462,-3.0932
YHgGe,19.4524,16.5446,-2.9079
YHgW2,33.6619,31.9854,-1.6766
NaScS2,38.4773,36.0687,-2.4086
Lu2TiCd,23.227,25.391,2.164
Sm4Rh3S,30.9251,24.894,-6.0311
SrCo(TcO4)2,17.0617,14.642,-2.4197
Sm(FeCo)3,17.4116,12.8017,-4.6099
Ni3SbTe,25.6423,22.0903,-3.552
YHgI2Cl,40.0024,37.7386,-2.2637
Ni2SbPb,32.4098,29.2345,-3.1753
NiSb2Pb,41.963,35.6673,-6.2957
Y2HfHg2,43.8892,31.5623,-12.3269
AcGdNiPt,48.0715,42.482,-5.5895
CeErPuZr,56.3439,54.4242,-1.9197
MgCoNi2B,23.2784,16.9282,-6.3502
GdY2Hg,32.503,26.9568,-5.5462
PrGdPa4,49.2356,51.7314,2.4959
Y2ScHg4,15.055,11.6823,-3.3728
HfReAs2Se,63.2807,52.4027,-10.878
Mn4FeRu,80.8608,60.6545,-20.2063
K2TmAgF6,6.1001,7.9177,1.8177
Ce2Zn3CoCu12,12.5589,12.6578,0.0989
Pu2Tl3CoO9,19.3476,20.0984,0.7508
RbScAg2F6,6.3599,6.182,-0.1778
BaSrSe4,33.7119,28.1198,-5.5921
Y2VHg2,41.2744,31.5985,-9.6759
Ac2La2RuPt2,62.4686,49.1552,-13.3135
Cu2Ir2Pt,32.2891,31.3223,-0.9668
CoBiRh2O,34.242,28.0163,-6.2256
Y2HgGe2,18.5699,15.5152,-3.0547
USnSe4,46.3077,42.0238,-4.2839
SrAc(ZnGe)2,18.2321,19.9095,1.6774
HfRe2BSe,56.8515,47.3532,-9.4983
SrCa4Sc,10.1911,8.3134,-1.8777
TlReAs2,28.2094,31.5715,3.3621
Co3AsIr,22.4387,20.2417,-2.197
Cr2GaCoCu,21.774,16.8206,-4.9534
CaGa3CoCu,13.5854,11.8242,-1.7612
RbH4Os,3.003,5.2791,2.2761
Tl2ReAs,38.2288,40.171,1.9421
CdIn2Fe(CuS2)4,38.048,29.3445,-8.7035
CaVTe2,54.0973,47.2008,-6.8966
BeReRh,21.6103,22.8393,1.229
Be2ReRh,22.1955,21.8904,-0.3051
Y2ZrHg,49.9056,39.5972,-10.3084
YHg2Pd,17.5325,14.5229,-3.0096
BeReRh,21.3964,22.8393,1.4429
Tl2CdCuSb2,33.237,31.1831,-2.0539
Y2TiHg,34.9639,26.3471,-8.6169
Nb3(CuS3)2,70.305,55.4642,-14.8408
Tm2ZnS5,37.7817,30.1433,-7.6385
BeCuRh2,30.2956,21.687,-8.6085
Ge2Ru2Rh,21.5809,19.6588,-1.9221
CoTe2PdN,65.3644,58.1751,-7.1893
EuMnN,42.9095,36.0149,-6.8947
Cs2KBa2,11.2565,11.815,0.5585
UTaSe4,42.1768,39.071,-3.1058
LiTe3Se,35.376,31.8243,-3.5517
Li2MnAg,33.0805,25.4682,-7.6123
Ac3NiB2Pt9,66.4701,50.1123,-16.3578
Cs2LiReO4,20.9921,21.2221,0.23
TlAgPt2,65.3935,50.2174,-15.1762
AcGa2Pt2Au,50.4889,42.4593,-8.0296
TiCr2Au,29.5279,28.8512,-0.6767
EuZrHg2,31.3887,28.1949,-3.1938
Li2MnAg,33.0345,25.4682,-7.5663
Ac4IrPtI2,53.4873,51.8055,-1.6817
Y2HgF,26.3259,21.2162,-5.1097
TaCo2Si,37.1635,29.7027,-7.4609
SiHgBr4,6.794,5.3762,-1.4177
TaTcSe4,53.0981,45.7708,-7.3274
Co2CuAg,28.6373,22.8828,-5.7545
AcPmPPt,44.6633,40.1647,-4.4986
RbTaNi2Bi,23.154,23.8651,0.7111
ZnCdPb2,33.1292,34.6713,1.5421
ZnCd2Pb,24.7441,25.862,1.1179
NaTaCu2Pt,35.1443,27.7032,-7.4411
Ca3GeSb,14.5438,12.6355,-1.9083
YHg2Pd,13.9088,14.5229,0.6142
YScHg2,10.1932,9.6717,-0.5215
YHgGe3,16.1793,14.1254,-2.054
InGa2Tc,28.2013,26.2709,-1.9303
Ac2TiSb3Pd4,34.0502,31.5672,-2.483
Tb2Th2Sc3,28.6964,31.5674,2.871
In2TcBr,36.3681,32.606,-3.7621
Ac2Si4AgPt3,47.9308,36.7501,-11.1807
Na2LaRe,32.5491,27.2374,-5.3117
Y2Ga2Hg,18.5915,15.19,-3.4015
KSi2IrSe8,38.9614,31.8459,-7.1155
BaAlC3,45.9284,30.7052,-15.2231
Mg3Zn2Bi3,21.5401,23.0378,1.4978
Y5HgPb4,34.9515,33.2493,-1.7022
AlZnCoIr,31.0988,23.1667,-7.932
FeSbAu2,45.0463,41.6902,-3.3561
Na3NbI,48.511,39.7187,-8.7923
Cd2CoAs,18.5062,17.3432,-1.163
Sm2Y6Tm,12.5532,15.4917,2.9385
K2ZrNi,29.8227,26.8054,-3.0172
TiSbRh3,40.2831,29.646,-10.6372
CdCoAs3,14.9886,13.6658,-1.3228
AsPb2,34.4696,38.8078,4.3383
TbSbS,41.681,34.6075,-7.0735
ZnCd6Sn,17.9996,18.7821,0.7825
TiSb2Rh,29.4339,23.5313,-5.9027
Er3ScAg2,25.7714,25.1372,-0.6341
NpU4Pa,68.9392,71.7761,2.8369
Pr2HfSc,34.9805,26.5491,-8.4313
Co2SiW,17.2032,18.214,1.0109
Sr2GaTe5As,28.6953,27.2535,-1.4418