Formula,E_hull_DFT (eV/atom),E_hull_ML (eV/atom),Delta (ML - DFT)
Mn2ZnRh,56.8924,46.5181,-10.3743
SrReTc3,76.3023,64.2215,-12.0808
Sm2TcN4,20.0846,20.1909,0.1063
SiHgPd2,8.4497,9.4766,1.0269
LiSiBr2,15.6723,13.2766,-2.3957
BeGeCl3,5.2161,4.8993,-0.3167
NaSmGe,11.3029,13.9428,2.6399
Tm2ThPb,44.7736,48.1024,3.3289
Si2TcPd,35.4544,29.6991,-5.7554
YCl3,34.7869,35.6505,0.8636
GdSiPd,11.0145,13.0069,1.9924
Pr3In3Rh2,17.3091,15.11,-2.1991
AgSbRh2,43.6578,34.7797,-8.8781
SiOs2Pd,23.6507,26.2108,2.56
HfZrTi4,45.0907,35.5713,-9.5194
AgPt2W,95.423,68.6416,-26.7814
BaGdN2,7.0157,10.0459,3.0302
Zn2GeRh2,19.9297,16.4106,-3.519
Ag2SbRh,39.1864,30.8249,-8.3615
K4V2Se,51.1867,40.3477,-10.839
Ag(SbRh)2,43.7824,32.775,-11.0074
TcBF2,24.0439,19.6471,-4.3968
Gd2Si2Pd2C,26.1348,23.1477,-2.9871
LiYSi,24.3744,22.7032,-1.6712
AgSb2Rh,42.553,33.337,-9.216
AcCoSb2,41.1613,36.4491,-4.7122
LiBe2Sb,10.6018,7.9217,-2.6801
SiOsPd3,23.052,23.0692,0.0173
Tb(PrPb)2,19.0584,22.7259,3.6675
TiCrTe4,37.7949,34.854,-2.9409
ZrBF2,21.9378,19.8302,-2.1076
TiCrMo4,20.223,22.3733,2.1503
Rb2NaPuO5,10.8654,12.1781,1.3127
Sr2Pd15Au2,20.1924,21.4473,1.255
DyBRu3,22.2886,18.8701,-3.4185
YCl2,53.145,53.2699,0.1249
Li2ZrTc,48.3162,40.7739,-7.5423
Lu3Sc,26.4853,28.6494,2.1641
YCl2,53.7049,53.2699,-0.435
Ba3ZnSe,10.8782,9.7833,-1.0949
Ba2LaTl6,39.4914,38.637,-0.8544
Y3(AgIr)2,27.0921,26.6311,-0.4611
NaCe2Pb,31.85,32.7205,0.8705
SiNi2Pd,11.2231,11.5887,0.3656
BaTe2Mo,21.9519,21.0896,-0.8624
Zn2SbBr,25.942,23.7785,-2.1635
Th3TiN6,10.1987,14.3551,4.1564
MoPb3C,48.3741,45.3347,-3.0393
Ba2NaRhO5,7.1642,6.2515,-0.9127
ZnSb2Br,35.2342,30.4529,-4.7814
Zn3SbBr,22.1965,20.7296,-1.4669
Ag3PtW,72.6567,53.4062,-19.2506
YCl3,40.8897,35.6505,-5.2392
Rb3TaOs,19.4216,19.0618,-0.3598
SbRhSe2,43.0518,33.3736,-9.6782
TiCuSn4,31.989,25.8512,-6.1378
RbTa3Os,34.2108,35.6013,1.3905
ZnSbBr,29.014,26.899,-2.1151
AgPt2W,95.5666,68.6416,-26.925
GePb3C,47.2183,43.6559,-3.5624
Zr4TiCu,68.8616,55.5796,-13.2821
In2Cu2Ir,15.1543,18.026,2.8716
In(SnPd)2,19.0471,16.5359,-2.5112
In2CuIr2,21.4598,25.1531,3.6933
DyTiAu4,40.5239,39.2824,-1.2416
InCu3Ir,17.5712,18.8182,1.247
CdCoSn3,17.6168,18.7174,1.1006
Ac2LaPd2,37.2613,37.353,0.0917
Ge2PbC2,39.724,32.5692,-7.1548
KZnBi,24.6532,25.2668,0.6136
ZrMoC2,59.132,46.2443,-12.8877
BiCI2N,44.4179,40.1982,-4.2197
Pu2AlCr(BPd2)2,15.145,18.3203,3.1753
ZrMoC2,59.0555,46.2443,-12.8112
Nd2ThPd2,24.0659,27.8803,3.8144
SrRe2Tc,55.5031,50.8175,-4.6856
Hf4TiIn,99.9522,73.7694,-26.1828
Cd(CoSn)2,14.8878,16.346,1.4582
TiMnNi4,40.8382,36.6881,-4.1502
CdCoSn,15.4694,17.4831,2.0137
Ca3FeSb,25.593,19.0859,-6.5072
AsW3I,33.2446,34.6744,1.4298
Y3ZrF,34.317,30.0098,-4.3072
Nd(ThPd)2,31.2951,35.969,4.6739
Pr3(BC)4,122.6696,107.272,-15.3976
ZrMoC2,59.1529,46.2443,-12.9086
Sm2Y3Th2,31.9978,35.1831,3.1854
ZrNi3Pb,34.7975,31.6841,-3.1134
Li2AgRu,12.6036,12.4055,-0.1981
TiTe4Mo,32.5857,30.9961,-1.5896
Li2CuPSe4,27.6246,21.7842,-5.8404
CaNd5Y12,17.4988,18.2812,0.7824
LiCuP2,13.476,7.7253,-5.7507
LiHfP3,35.6548,25.3617,-10.2931
Ca3(NbN3)2,26.7139,23.0015,-3.7124
Pm(TmPd)2,18.083,22.3854,4.3023
Si(PbAu)2,39.241,39.3124,0.0713
CaY12Tm5,19.1798,19.8671,0.6872
U6MnSb2,66.8858,64.963,-1.9228
TiCuNi4,8.5457,9.2094,0.6637
Pr2ErPd2,6.1846,8.6115,2.4269
Pr(SmPd)2,9.9527,14.0076,4.0549
RbWSe3,41.4285,32.6898,-8.7388
SrTbPb2,35.8871,37.8389,1.9517
PmPu2Sb,53.3547,53.6469,0.2922
NaZn2In2Au5,28.7776,29.4325,0.6549
ZnTeSe,32.589,28.6699,-3.9191
Pa2Pd2Pt,51.3361,48.503,-2.8331
Co2SnRu,6.5209,10.7553,4.2344
Cs(In3Ge)2,18.0114,18.8273,0.8159
YScTl,23.0488,25.5878,2.539
Cu2SiMo,23.7989,17.2329,-6.566
GaFe2Si,7.6765,5.6601,-2.0164
HfAgRu3,47.6387,38.5484,-9.0903
BaHfRu2,44.4401,36.6235,-7.8166
Cu2SiMo,23.5733,17.2329,-6.3404
Pm2Sb3AsRh4,38.2452,30.0384,-8.2068
CaY2F8,9.4726,10.3691,0.8965
YWSe,47.1398,33.573,-13.5668
ReTcN2,87.3857,82.1853,-5.2004
Pr2ThPt2,39.7563,30.8097,-8.9465
UVTe4,60.5691,55.1051,-5.464
Cu2SiMo,23.6979,17.2329,-6.465
Ac(TbPr)2,22.0134,24.8932,2.8798
VReTe4,56.0117,50.6376,-5.3741
PmRuRh2,48.5694,37.5643,-11.0051
GePtAu,48.7932,40.9883,-7.8049
Ge2PtAu,34.1575,30.1374,-4.0201
CsIn2Ge,18.2661,19.9037,1.6376
Rb(ScGe)2,20.6791,14.5701,-6.109
Rb3PdRu,27.5837,23.4752,-4.1085
Tb2GdN,20.1548,23.4631,3.3084
V4ReOs,99.1191,82.3079,-16.8112
CaHfTc,58.3547,48.8838,-9.471
CaTePd,7.1394,10.3956,3.2562
GePtPb3,51.6316,46.1539,-5.4777
LaZr2Fe,62.4522,48.535,-13.9172
CaTePd,16.2168,10.3956,-5.8212
VFe4Ni,37.3125,28.881,-8.4314
Re2TcMo,50.2431,47.8201,-2.4231
Li2LaRu,17.2425,14.009,-3.2335
ZnNi2Ru,9.0979,12.0473,2.9494
Ca2YF,13.3352,13.558,0.2228
ReTc2Mo,63.4484,58.8897,-4.5587
Ca(TePd)2,24.3078,24.4533,0.1455
Er2PuScSe4,39.4467,35.7793,-3.6673
Er4ScAs5,20.9259,21.109,0.1831
TaOsSe2,37.2394,41.1349,3.8955
YZr4,82.7119,65.7556,-16.9563
Pr6Pt2C,16.7935,10.0759,-6.7176
NbSi3Pd,42.1373,32.3553,-9.782
CaYOF2,26.8277,23.0941,-3.7335
DyBRu,20.3648,18.9492,-1.4156
Y2Zr3,57.0886,48.2604,-8.8282
Nb2Si4Pd,52.3569,40.767,-11.5899
PrY(HoS2)2,35.0103,28.415,-6.5953
KBa2TaSe5,30.8408,26.1768,-4.664
Y2Zr,42.2155,37.8294,-4.386
NaYZr,40.6234,34.6483,-5.9751
Li2TaHg,12.1376,13.182,1.0444
VZn2Pb,46.3045,43.2071,-3.0974
NaY2Zr,38.0608,33.3604,-4.7004
BeCd2Rh,22.5609,19.2852,-3.2757
Sr(ZrZn)2,40.9638,34.7758,-6.1881
BeCd2Rh,22.9103,19.2852,-3.625
BaNa2Rh,22.0591,17.1523,-4.9067
Rb3TlIn8,17.8853,18.1157,0.2304
KRb2Ba,4.0674,3.4592,-0.6083
Cu2ReSi,18.1467,19.0638,0.9171
Tb6PrEr12,26.8513,28.0238,1.1726
BeCd2Rh,22.821,19.2852,-3.5358
YZr2,70.2153,57.8723,-12.343
Er2Rh6C,45.341,34.5719,-10.7691
La2YCuAg,41.5964,30.1757,-11.4207
KAl3Si,17.1143,14.377,-2.7373
PrNdSnO,32.3137,29.6396,-2.674
YHf(BC)6,66.1289,48.2467,-17.8822
Cu2SiW,17.9777,18.5147,0.537
SrBiSe2,54.506,47.001,-7.505
MnI3,39.3986,34.5566,-4.842
Sr2In2Ir,21.7326,20.4272,-1.3054
PdRuSe3,36.7075,31.0867,-5.6207
La(SmBi)2,41.6184,39.907,-1.7114
TbHo2Hf,57.0959,49.6417,-7.4542
Cu2SiRu,15.2384,13.2611,-1.9773
PrHoOs,21.6456,25.3035,3.6579
VTe4Mo,53.3036,46.3587,-6.9449
PaSnPb2,48.6507,51.6686,3.0179
Rb2BaSb2,15.3076,12.0818,-3.2258
AlTeN2F,22.3272,19.536,-2.7912
Rb2Ga2Pt,19.0002,13.4503,-5.5499
TlInAs2,22.7369,23.9717,1.2349
YCoAg2N,61.3055,52.0623,-9.2433
Na7Pt,32.7976,24.6339,-8.1637
Pr(DyTm)2,17.8375,21.9896,4.1521
LaY4Ag,22.991,21.2644,-1.7266
KCuP,14.0358,12.4709,-1.5649
KHfTa3,55.1978,47.7132,-7.4845
LaZr2Sc,63.4703,49.5077,-13.9627
Rb2TaMo,11.2758,14.3716,3.0958
Cr2GeRu,6.9786,7.4342,0.4556
Cd2InSn2,20.0358,21.1236,1.0879
Y5Zr3,45.6349,38.2192,-7.4158
Li2Ho(ZnSi)2,16.2339,15.3434,-0.8904
Sr4Nb3AgO12,24.3896,21.2696,-3.12
Pm3SmBi4,38.7965,41.2536,2.4571
LiSiPb,25.9412,25.8782,-0.0629
YAgB2,58.6476,49.6563,-8.9913
Co2TcSb,38.9162,33.7982,-5.1181
Cu3Ni,6.6185,8.8123,2.1938
InPbW2,38.3659,42.0422,3.6763
Li2Fe(Si2O5)3,17.5562,15.377,-2.1792
Be2InPb,18.7678,20.5651,1.7973
BeInPb2,31.6221,33.2116,1.5895
Ge2SbAs2,12.7433,12.2026,-0.5408
BeIn2Pb,23.4032,23.9658,0.5626
BeIn2Pb,23.403,23.9658,0.5628
BeInW,24.123,25.1899,1.0669
BPb2F,28.7828,29.981,1.1982
LaAl4Tc,22.6367,18.0405,-4.5962
ScSe,25.085,22.9044,-2.1806
BeInPb2,31.5964,33.2116,1.6152
BeIn2W,23.1246,24.4218,1.2972
SrLiY2,12.8554,12.4104,-0.445
BeInPb2,31.6001,33.2116,1.6115
TaOs2Se,42.6665,44.531,1.8645
BaSrBePt2,43.4583,28.0697,-15.3886
BeInW2,27.5252,30.5017,2.9765
CdNi2Sb,25.8237,21.5945,-4.2292
BeIn2Pb,23.3915,23.9658,0.5743
BaI3,16.2109,17.3284,1.1176
AcNdSm,38.1048,41.4695,3.3647
Ac2TlZn3Pd4,26.7883,28.4737,1.6854
In2PbW,33.2609,36.1384,2.8774
Ac2NdSm,44.7206,48.2998,3.5792
Ac(NdSm)6,28.1121,29.4264,1.3143
MnBeTe3,46.2235,39.7739,-6.4496
Tb4InAg5,28.0236,26.4413,-1.5823
Ca2CuW,12.6715,14.6444,1.9728
LaPmY3Er,19.1908,19.2816,0.0908
MnBeTe2,46.0825,40.7337,-5.3489
RbTa2Mo,24.3268,27.304,2.9772
TaMoI2,25.5436,27.051,1.5074
NaLi2Zr,31.2237,25.9564,-5.2673
Pr2GdPd,9.065,12.3147,3.2497
Ac2TlZn4Pd3,25.8543,27.4048,1.5504
NaTa3Se,38.9477,37.5664,-1.3813
RbZr3Ti,64.0937,49.3686,-14.7252
Li2AlSiBr,21.8333,17.7894,-4.0439
BiSe2BrN,33.397,29.652,-3.745
SbPCl2,15.783,13.0979,-2.6851
BeCrRu2,10.407,13.8869,3.4799
Pr(NdTh)2,35.3539,39.1349,3.781
Ac6CuIr2Pt,56.477,55.4874,-0.9896
VCuAs2,33.6113,28.917,-4.6943
Sr3Ni5I12,9.4444,9.2522,-0.1921
InP2Pt,29.3033,23.5204,-5.783
Tb2PrAu2,23.1453,26.6603,3.515
Fe6Si2C,3.7226,1.2552,-2.4674
UPOsN,38.5919,37.6657,-0.9262
La2FeSi,30.2703,20.2521,-10.0182
ZrVP2,57.6879,46.9908,-10.6971
LiInSi,15.3973,15.3491,-0.0481
Sc2WI,13.3331,16.7273,3.3942
Sr2Tl3Cd5,27.6475,26.8978,-0.7497
AsIrSe,54.261,52.5345,-1.7265
TmAg2Sb,34.8062,30.6654,-4.1408
Ba2GeC,14.53,12.1546,-2.3754
ZrCdNi2,36.2275,30.0164,-6.2111
UPa2Fe9,35.1536,29.0826,-6.071
Rb2HfRu,66.0524,50.4644,-15.588
Cu2AsPb2,22.026,23.8584,1.8325
Lu2OsPd,31.0207,34.2678,3.2471
Y(AgN)2,33.1283,26.6914,-6.437
ScCd2Pb,21.0742,24.2402,3.166
Th(Cu3Ge)2,13.6695,15.347,1.6775
BaTcPb3,52.1507,49.3002,-2.8505
Y2TlZn2,18.1501,17.7502,-0.3998
Pa2PdRu,41.8106,46.6843,4.8737
ReSb2Au,44.8855,40.9924,-3.8931
Li2TlSi,21.9953,21.0096,-0.9856
Y2HoThS4,41.7299,35.4276,-6.3023
PaPd2Ru,29.5003,33.559,4.0587
ScMo2As,24.3797,23.3541,-1.0256
LiCa(SbPd)2,22.788,19.1608,-3.6272
Be2SbBr,18.4912,18.6954,0.2043
Li2TlSi,21.8939,21.0096,-0.8842
LiSiBr,21.7237,17.4469,-4.2768
Co2TcW,36.8642,36.8799,0.0157
LaTaNi2Se,29.6856,25.4585,-4.227
ZrRuO2,25.7732,29.6247,3.8515
AsIrSe,53.4851,52.5345,-0.9507
Dy6In2C,28.9807,27.7068,-1.2739
Al2AgMo,18.1508,16.0906,-2.0602
Li2SiW,19.1212,18.8376,-0.2836
KSiTc2,53.4899,45.95,-7.5399
ZrRuO3,27.3565,21.8604,-5.4961
ZrCoSn2Hg,29.1647,25.7979,-3.3668
Pr3Mg5Ga2,0.8851,1.5835,0.6985
Li2SiW,18.9669,18.8376,-0.1293
BaNbI2O,51.7415,42.5377,-9.2038
BeSi2,10.9003,8.9107,-1.9896
Ba3Ca2NbO8,21.4858,18.5933,-2.8926
Pm2SmHo4,27.0993,29.274,2.1747
AlPdSeN2,22.8574,18.8422,-4.0152
LaThC,51.9379,42.4841,-9.4538
AcLuPt2,68.2332,55.7802,-12.4531
AcLuInPt,51.2648,46.3406,-4.9242
NaCaY3,19.1484,16.7008,-2.4476
DyNpU2N4,28.3955,31.1694,2.7739
Mn2AlFeN,42.5857,35.4095,-7.1762
LiRe2Si,29.2386,30.0511,0.8124
Tm6In2C,31.1461,29.7833,-1.3628
Tb3Sc,21.2478,24.0663,2.8185
PdSeN3,23.3662,19.1302,-4.2359
Ga2TcSe,39.9103,31.6095,-8.3008
Sc2CdPb,20.1484,22.5728,2.4245
K2MoPt,33.6248,25.7103,-7.9146
Al2TlAg2,20.9297,20.4886,-0.4411
Sr3NbMo,41.1689,35.9684,-5.2005
YZr,48.7545,42.8184,-5.9361
TaSe3,39.8801,33.7911,-6.089
Al2TlAg2,24.033,20.4886,-3.5444
AlTlAg2,29.2493,26.9974,-2.2519
Y2AgPd,27.3181,24.7404,-2.5777
Y15In4,10.7862,11.079,0.2928
RbCa2Sb,12.8905,11.4057,-1.4848
PdSe2I,34.1699,29.9774,-4.1926
PdSe2I,34.4903,29.9774,-4.5129
NdZrSc2,33.3713,30.4881,-2.8832
Th2TcN,55.9239,56.3606,0.4367
FeRe2Si,34.5343,32.4457,-2.0886
Zr2SnN,53.8921,46.145,-7.7471
Ca2CeAg6,24.5605,21.2262,-3.3343
Sr(Cd3Pb)2,26.9919,26.6927,-0.2992
ScSn2,10.0694,9.2565,-0.8129
Y12HoEr7,20.2906,21.1652,0.8746
LiSiRu,7.2914,8.2966,1.0052
Rb2MoPd,14.2351,10.7282,-3.5069
TmScTlIn,27.5027,28.8893,1.3866
YTm2Ag,26.8292,27.9796,1.1504
Ni3TeBr,15.1955,15.4067,0.2112
BaPb2W,36.5686,38.4263,1.8577
FeSiRh,22.5881,17.1136,-5.4745
BaOsW2,94.2905,76.8423,-17.4482
TlSbSeBr2,39.2202,35.4114,-3.8088
Dy7In3N2,20.1875,21.6,1.4125
OsPbW3,94.7805,81.0072,-13.7733
BaOsW3,86.6588,71.9868,-14.672
PaAlCo2C,32.3674,27.7702,-4.5972
TaGa2I,40.7024,34.2981,-6.4042
RbBa2Zn,2.4351,3.2398,0.8046
Cu2POs,19.6735,20.5864,0.913
Cs3ScCu,30.498,26.6825,-3.8155
AcPPtRh,43.9436,35.9815,-7.9621
Ni2TeBr,12.4725,14.7371,2.2646
SmUN2,23.1493,26.9879,3.8386
Cs2Ge3PbO9,2.8518,3.2825,0.4306
TeSe3,47.3509,38.4203,-8.9306
NiTe2Br,25.2738,25.9751,0.7013
Pm5NdHg3,12.5818,15.6563,3.0745
Ac2P4PtRh3,36.994,30.7662,-6.2278
InSiSb2,31.5005,25.2505,-6.2501
Ac2Ge3Pt4Rh,55.5776,43.0857,-12.4919
Ac2Sb3PtRh4,54.1869,42.8518,-11.3351
Sr2CeIrO6,20.0467,18.0876,-1.9591
TiCo6,16.4853,15.6151,-0.8702
Cs4Sr(SiO3)3,3.4471,3.9549,0.5078
InSiSb2,31.4066,25.2505,-6.1562
KBa,6.1501,6.1945,0.0444
NaYZr,40.8165,34.6483,-6.1682
Ac4Ru2N,57.3901,54.8034,-2.5868
CrTe2Rh,35.8386,31.437,-4.4016
Ca2PmCu6,9.947,10.1534,0.2065
CsScCu2,27.1815,20.9565,-6.225
Zr2SbPb,73.2439,61.0405,-12.2034
NiAs2IrBr,24.7932,22.5768,-2.2164
Y2Ga8Rh,12.9552,12.3891,-0.5662
BaTeMo,22.2806,19.7563,-2.5243
CaYZr,46.0305,36.0726,-9.9579
BaTeMo2,22.1387,19.633,-2.5056
Be2HgTe,10.9531,11.4314,0.4783
Sr(CaGa3)2,8.5087,9.1686,0.66
TaCrSe,65.2095,50.3692,-14.8403
Ac6Pt2RhS3,64.009,55.0688,-8.9403
Ca2Ga6Rh,11.6778,11.0657,-0.6121
BaTe2Mo,26.6399,21.0896,-5.5503
CaThRh2,41.6172,37.0207,-4.5965
Co2TeW,24.8219,26.0871,1.2652
KScSbRh2,34.8507,25.901,-8.9497
KMn,56.8458,46.0772,-10.7686
Ti2SbMo,17.2625,17.5377,0.2752
NdSm5Bi3,29.8855,32.7441,2.8586
BPd3,7.4524,11.3802,3.9278
ScW2Au,32.5891,37.3322,4.7431
Li3TlSb,19.2002,17.7525,-1.4477
Cs2Bi(BO3)2,11.7951,11.7655,-0.0296
SmScAgRh,27.13,24.5886,-2.5414
AcScRhAu,40.9281,39.9222,-1.0059
Ce3GeN,16.0369,17.8981,1.8613
ZrGaAs2,31.511,27.8986,-3.6125
TlZnCr,24.5923,23.3063,-1.286
NpCu(HgO3)2,13.1673,13.5828,0.4155
Li2MnSi2,29.9111,23.7052,-6.2059
TaFeSi,18.2396,19.3853,1.1458
FeTc2Pb,55.4534,51.0716,-4.3818
La2LuAg,42.2386,33.4433,-8.7953
NdThScNb,59.5836,56.2069,-3.3768
Ca2InPb6,38.2335,39.7348,1.5013
Ce3(TlZn)2,27.1209,28.9004,1.7795
Ca2PmI6,17.74,18.8728,1.1328
Rb2InAg2,17.2157,12.9223,-4.2934
AsI3,20.4,20.8249,0.4249
Na2(Tl2In)3,37.6873,37.2637,-0.4235
Ca2Nd6Th,25.0819,27.5461,2.4642
Ac4PbN2,37.9194,42.0083,4.0889
Rb2In2Ag,12.8752,11.731,-1.1442
Sr3(ZnGa)2,10.0431,11.275,1.2318
Fe(GeBr)2,4.9629,5.6439,0.6809
Ca2BiPd6,18.5287,20.1382,1.6095
Y2ZrSi,50.1254,42.0369,-8.0885
Ca2Pd6Pb,18.3127,19.9516,1.6388
Na(TaSe2)2,34.7215,30.3781,-4.3434
Ca2PmPr6,2.8822,3.1101,0.2279
LiSiOs4,34.6884,35.9273,1.2388
Rb3CaSc,6.7788,3.8876,-2.8912
K2NiTe,18.297,17.4442,-0.8528
LiTaSi4,19.7513,15.6588,-4.0926
Y6Ga3Ru,8.4226,8.8891,0.4666
TaCuRu2,20.0269,17.3224,-2.7045
BaNa2Sr,15.6813,14.0271,-1.6543
Ba2LiAl3Si4,20.8769,16.8438,-4.0331
CsGaPO2,28.0117,22.8767,-5.135
AcYGa,29.391,31.6506,2.2596
HfNiTe2,58.673,48.6397,-10.0334
SbPbF2,27.7706,26.014,-1.7566
KCdSi,15.7047,13.8009,-1.9038
NpPaI,45.2943,53.1468,7.8525
NaLiSi2Tc,34.0519,28.0458,-6.0061
Zr2NpTi,70.3227,60.7211,-9.6016
LiCaLuSi,18.5417,18.7895,0.2479
TlAgP,28.9771,28.3734,-0.6037
LiFeSiRu,30.5681,23.168,-7.4001
Ta2FeSi,22.9063,23.9309,1.0247
Ca2YCd2,13.5727,12.8531,-0.7196
Y(TiIn)2,20.7816,19.5639,-1.2177
FeCo2SbN,65.0353,53.5163,-11.5189
Li5SiTe6,23.755,21.8503,-1.9047
Li2ReSi,14.7743,18.9942,4.2199
Pa3TaN6,12.21,17.9965,5.7865
RbLiSi,10.2743,8.4441,-1.8302
Sr6Ca2Tl,15.3362,15.6897,0.3535
LiSi2CBr,29.8034,20.7173,-9.0861
Cd2Fe2Ge,5.1816,8.1278,2.9463
PaHgBi,40.6562,43.0679,2.4117
NbSbRh2,70.9381,56.2197,-14.7184
Ca2AcTl6,41.9232,43.3836,1.4604
Li3NbSi,36.6216,29.8791,-6.7425
Nb2Ru2Au,72.842,63.7774,-9.0646
BiPAu2,34.4358,36.861,2.4252
LiSi2Tc,35.9264,29.3045,-6.6219
Tl2RhPb2,47.5811,45.7611,-1.82
Ba2CoHgC,15.888,11.7943,-4.0937
SrTlFe,29.0287,28.2633,-0.7653
RbLiSi3,15.5952,10.3117,-5.2835
PuTlSb,55.7645,53.9105,-1.854
SmI,19.6542,23.4288,3.7746
Li2TaSi,18.4662,18.4437,-0.0226
Li3HfSi,36.7789,27.1815,-9.5973
LiNb3Si,93.0321,75.6192,-17.4129
Nd2NpScP4,26.9926,26.4923,-0.5002
Y3TlSb,21.2642,21.9578,0.6935
LiSiTeO6,7.4482,6.224,-1.2242
LiSiRu4,20.3758,18.3315,-2.0443
LiSi2Os,23.1408,21.2028,-1.938
LiTaSi,24.4951,24.7241,0.229
LiSiPb2,35.6871,35.2041,-0.483
CsCdGe2,15.573,17.1387,1.5657
Na2LiSi4Pt3,39.3987,26.5783,-12.8204
Ca2VBr6,21.5681,19.9047,-1.6634
Ca3Pm12Pr5,5.9674,9.7806,3.8132
LiCaSi,6.7989,7.3132,0.5143
Mo2RhBr,17.3791,16.9586,-0.4205
Pa2ZnCd,40.482,43.1856,2.7035
Ca2Ac15Y2,55.287,55.7895,0.5025
Ca2La15Y2,45.0677,29.4688,-15.5989
LiSi4Ru,18.6713,13.0708,-5.6005
Ca2Pr15Y2,1.4932,0.7424,-0.7508
YSb2Ru,28.3823,22.3234,-6.0589
Li4CaSi4,13.034,10.3672,-2.6668
Rb2Tl2Ni,20.2518,20.9892,0.7375
RbBa2Ag,8.2242,7.4382,-0.786
Ca2PuZn6,15.3436,15.2565,-0.0871
LiCaSi,13.9985,7.3132,-6.6853
Rb(LaSb)2,38.3278,27.2991,-11.0287
CdSn2Au,27.012,28.149,1.137
InMoBr3,14.4016,14.8384,0.4369
LiHfSi,47.3063,34.8463,-12.46
LaPm2Zn,27.1832,24.5074,-2.6757
Cs(TaSe3)2,42.2699,35.9462,-6.3237
CaAcPtRh,51.3295,42.5894,-8.7401
CoCuHg2Au,25.2673,21.6243,-3.643
YB6C7,60.7392,44.6871,-16.0522
NaAc2ScO5,35.8568,36.1575,0.3007
Tc2BPb,60.7823,55.8507,-4.9315
CsZnIO2,37.1967,28.9749,-8.2217
P2Au,13.5526,18.3845,4.8319
Tb2YHg4,14.7148,13.9434,-0.7714
YSb2Ru,34.3019,22.3234,-11.9785
Ba2TbThAs4,15.8291,17.6145,1.7854
Be2HgPb,13.5453,15.1774,1.6321
Zn3CdH8,4.099,4.4149,0.3159
Te2H6W3S4,28.8476,25.4766,-3.371
Y(BiAu)2,43.3208,45.1068,1.786
AcAs2Pd2Pb,28.0685,30.3792,2.3107
Sc2WAu,24.1791,27.1513,2.9722
Nd3Te2Pb,33.9401,34.5481,0.608
Ga3SnC,23.0951,19.5462,-3.549
Li2SiSb2,21.6735,17.0553,-4.6182
PmPrLu4,25.9738,28.0941,2.1203
Sc2WAu,24.0929,27.1513,3.0584
ZrRe2P,65.4403,56.1031,-9.3372
MgUCo,18.4076,19.8564,1.4487
ZrReP,45.2711,36.7985,-8.4726
Zr(ReP)2,68.8771,55.7763,-13.1007
Tl(SbBr3)2,29.7156,27.601,-2.1146
LiSi2Se,25.082,19.0129,-6.0691
LiInSi,15.3638,15.3491,-0.0147
Tl2AgSb,44.5736,41.3442,-3.2293
Tb2PmAu2,29.0441,32.7637,3.7197
Te(PbAu)2,44.7692,45.8591,1.0899
KLiSi2,16.3018,12.7441,-3.5578
LiHfSiRu,50.0956,38.6619,-11.4337
TlAg2Sb,39.7576,34.7357,-5.0219
Cs(LiSi)2,16.7514,15.2156,-1.5358
Y3HoTl2S,36.5319,36.0399,-0.4921
Ac4Y3HoBi8,46.882,48.6829,1.8009
Cs2Rb2Cd,13.3569,13.4322,0.0753
Ba2TcPb,36.8799,34.3206,-2.5593
YAl(BN)6,15.3298,12.4591,-2.8707
Ca2ScTc,65.1608,57.1116,-8.0492
BeCrTe2,23.5269,22.5609,-0.966
SmZn5H6,5.6461,6.0293,0.3832
ZrSc3Sb,33.6743,27.6884,-5.9859
AgAuSe2,40.7747,35.5701,-5.2047
AcLuCdPt,51.1181,46.3558,-4.7623
CoCuP2,16.1997,14.1052,-2.0945
Ca2ReTe,23.3725,24.4436,1.071
Co2PbW,29.8001,30.1565,0.3564
LiAcY2,23.4298,26.04,2.6102
LiTa2Si,27.3999,28.6673,1.2675
Pa8SnOs6,53.788,56.5604,2.7725
LiAc2Y,35.9796,38.5374,2.5578
LiRe2Si,29.3583,30.0511,0.6928
AcLuCuPt,47.984,43.2108,-4.7732
Sc2WAu,24.0123,27.1513,3.139
Zr5Sc4,49.3461,39.0089,-10.3372
Ca6CdPt2,21.4084,16.2022,-5.2062
ThTi2,25.5587,29.3005,3.7418
CsLiSi,17.5,15.8078,-1.6922
Ca6InCu2,5.851,6.3389,0.4879
Ti2Bi2Te,26.6591,28.7449,2.0858
LiCaTaSi,14.7606,15.3163,0.5557
LiZnIn2,13.0714,13.8206,0.7492
BaPrF5,1.9669,2.4949,0.528
AcLuHgIr,34.8727,38.3179,3.4451
Nb(AgBr3)2,29.8385,26.8804,-2.9582
Ca(YC)2,39.347,30.0565,-9.2905
Sm5YSb5,32.0411,28.6428,-3.3984
CuIr2Ru,31.8904,32.2551,0.3647
Cd(SnBr3)2,13.6788,14.3288,0.6501
Na3NbTe4,47.3722,41.7823,-5.5899
CaY2(TlAg)2,30.7987,28.5788,-2.2199
Li2RhSe,24.1804,19.2757,-4.9046
IrSe3,47.3932,41.9577,-5.4355
Sr(Zr2V)2,96.3938,75.7944,-20.5994
YAlPt,55.5353,40.8206,-14.7147
Rb2AsI6O,29.8746,26.8717,-3.0029
Pr6C2N,15.5178,12.2175,-3.3003
YTlSbRu2,32.8202,28.5514,-4.2688
K2CeMg3F12,12.0719,11.5036,-0.5683
LaPr3(YAs3)2,9.688,9.5881,-0.0999
PaCr2Tc,44.6865,43.1365,-1.55
K2Li3OsF12,7.7727,8.1191,0.3465
Pm(TmTl)2,33.328,36.8103,3.4824
Li2Y(InAg)2,17.9161,15.6652,-2.2509
SrBeMo3,19.1967,16.2524,-2.9443
PaCrTc,56.8661,54.1754,-2.6907
SrGaTc3,62.8941,53.782,-9.1121
Ti2AgSb,21.4667,19.8076,-1.6591
NaIn2CoSb,23.9989,20.7595,-3.2395
Nb4VMo,118.3909,97.7789,-20.612
Pm(SmPb)2,31.3541,34.7696,3.4155
Zr4TaBe,74.2794,60.136,-14.1433
Re2SiAu,35.8148,36.7885,0.9737
Ho(TmCd2)2,23.6209,24.712,1.0911
Ca2BSbN,14.3148,11.2184,-3.0965
CuNi3,6.4413,9.6036,3.1622
Pm5(NdBi2)2,35.3851,37.4326,2.0475
ZrCd2Fe,34.3316,30.3336,-3.998
Y6Tl2Tc,46.0741,43.9903,-2.0839
CeGdNi2,21.8582,22.0836,0.2255
PmNdBi,29.55,34.0948,4.5448
Y2GaTe,14.0652,17.3266,3.2614
FePbBr2,26.6071,24.0059,-2.6011
Pr5HfSi4,17.5427,11.938,-5.6047
LuAgAu,36.7624,36.7322,-0.0303
CsBeSb,13.4544,14.9667,1.5123
Be2ZnSb,19.4497,14.5892,-4.8605
Y2GaRh3,30.0787,24.0099,-6.0688
LiZr2In,55.3621,44.4957,-10.8663
BeZn2Sb,21.2377,15.9495,-5.2882
ZrTaBe2,39.4897,33.9708,-5.5189
MnBI2N,31.6565,27.4692,-4.1873
KSiAu,21.1395,20.2951,-0.8445
BPb2N,28.2367,30.1023,1.8655
Zn2FeSi,14.6091,13.6069,-1.0022
BeZnSb2,30.4478,22.9174,-7.5304
NaOsRh2,41.7184,35.1542,-6.5642
RbYAgTe2,21.3051,20.6686,-0.6365
Eu2Si2Rh2C,35.8658,28.5819,-7.2839
LiTeIr2,27.1051,30.1737,3.0686
NaOsRh,33.4397,29.9489,-3.4908
Rb2Ca2Ru,23.6148,20.2485,-3.3662
Mn2BiTe,68.1464,59.3991,-8.7473
CeYBiAs,24.7115,28.2817,3.5702
NaCuAgSb,26.8922,22.5703,-4.3219
ZnHgSb2,24.5335,19.9093,-4.6241
CdIn2Ru,19.0428,21.1071,2.0644
CaYC3,49.2964,35.6419,-13.6545
TcSb2C,55.7984,44.4288,-11.3696
Yb(Al2V)2,43.2782,36.4452,-6.833
Zn2HgSb,15.1221,13.3068,-1.8152
Rb(TlIn)3,28.4566,29.3958,0.9392