Formula,E_hull_DFT (eV/atom),E_hull_ML (eV/atom),Delta (ML - DFT)
Ta2SnC,39.855,37.944,-1.911
SrBiI2O,36.4156,33.115,-3.3005
CoSiSbTe2,31.5423,26.911,-4.6313
K5Pm2F12,8.4738,8.9553,0.4816
GdTlAu2,43.1728,45.1006,1.9278
TaNi3C,23.3684,21.0848,-2.2836
CrPI2,39.2356,35.6283,-3.6073
HgTeW2,30.7642,32.2317,1.4674
PmYHgBi,31.9402,31.517,-0.4232
CaY2HgC,33.1157,26.3978,-6.718
CrRuPb,19.2078,22.1356,2.9278
P2AuI,22.3256,21.4669,-0.8587
YInGaHg,19.4278,18.2815,-1.1463
AlHg3Pt,18.8671,13.9736,-4.8935
ZrSc2Cl,44.8467,41.2814,-3.5653
PAu3I,35.5537,34.8951,-0.6586
LiMg2Pb5,30.5257,32.0322,1.5065
H4SeS,13.8826,10.6542,-3.2284
InCoTeI2,23.596,23.2881,-0.3079
Er7Ru2C11,37.8928,30.3061,-7.5867
Nd2PuSb,41.1083,40.9681,-0.1402
Eu6Np,35.5875,35.9396,0.3522
CrP3Au,33.8042,30.7906,-3.0136
Gd2(Zn2Ge)3,11.6272,12.754,1.1268
ScCuAgRh,38.4372,29.9719,-8.4652
TbYHgPd,24.0781,22.915,-1.1632
Cr2PAu,40.8464,38.0688,-2.7776
Co2TeRuBr,22.3136,20.0592,-2.2544
In2(AgAu2)3,37.9604,36.9364,-1.0241
Na(AgTe)2,34.0458,29.4869,-4.5588
ScNb3Au,96.9684,79.3035,-17.6649
GdGeN2,0.3917,3.7239,3.3323
Er5(Pd6Pb)2,23.7552,25.0222,1.267
Y2BeZnHg,26.5791,19.6711,-6.908
Y2NbTlHg,59.7194,49.6294,-10.09
SnSb2Pd,35.5285,30.2281,-5.3004
PaTaW,47.7391,53.0466,5.3075
U6Cd3Cu2H,41.2985,43.6599,2.3614
Na2YHg,25.0446,20.7722,-4.2724
Pr3Pt7Au2,58.0549,44.0948,-13.9601
NdTmZn4,13.9888,15.7104,1.7217
TlZnInPt2,52.2634,42.1828,-10.0805
HfCo2SbTe,50.5448,39.4387,-11.1061
TbEuGa,20.9069,23.1154,2.2084
Mn2ZnAuN,58.4005,49.1627,-9.2378
NiTeP2,19.1105,17.5514,-1.5591
ZnCN2,18.6441,16.9205,-1.7236
Ba2NaPt2,40.1912,29.5609,-10.6303
GaCoSb2Te,30.5053,26.6496,-3.8557
Ac2Ga4SiPt3,43.7617,36.2316,-7.5301
Ni2Te,13.3381,15.7617,2.4236
LaScMo,36.2235,31.3695,-4.854
NiTe2P,28.4193,26.9979,-1.4214
CsTeNO2,43.3513,41.9877,-1.3636
Si2TePb,31.4545,27.8573,-3.5972
PSCl2F,17.1505,16.8144,-0.336
ZrCoSbTe2,48.329,41.5155,-6.8135
Si2TePb,31.5523,27.8573,-3.695
NiAgRh2,34.8585,27.0995,-7.759
Si2TePb,31.6864,27.8573,-3.829
Si2TePb,31.7079,27.8573,-3.8506
SnSbTe2,37.5414,35.1902,-2.3511
La2MoAs,32.2299,27.1878,-5.0422
RbYAgHg2,17.719,13.8165,-3.9025
Y12Ho5Er,18.7514,20.5312,1.7798
LaMoAs2,21.113,20.5439,-0.5691
LaMo2As,23.3968,22.1286,-1.2682
CrNi3Te,23.3792,21.6473,-1.7319
LaMoAs,25.3484,23.7232,-1.6253
NiTeOs,30.8357,32.8631,2.0273
Ba2Zn2As,4.8779,4.5774,-0.3005
TlZnTeN2,37.287,33.3981,-3.8889
AgIrW2,71.3215,61.2879,-10.0336
AcPdPt,56.6084,50.4066,-6.2018
Pr9Y4Tl11,24.6288,25.04,0.4112
RbBaHf2,73.8553,51.5552,-22.3001
Tl3GaTc,51.2425,48.4392,-2.8033
Ag2IrW,70.147,56.8931,-13.2539
SnSbTe,35.9027,33.3748,-2.5279
LiTh2ScS4,48.665,41.9028,-6.7622
CaCoTe2F,33.9834,28.843,-5.1404
Ni(BiTe)2,36.0738,35.97,-0.1038
ZnTcN2O,44.836,35.6344,-9.2017
Cd2ICl,14.6903,15.5165,0.8261
Na(CeTl)2,31.427,33.0498,1.6228
TbNb2,103.4395,85.4912,-17.9483
RbBaSe4,31.4759,24.8575,-6.6184
Pm9Pr11Y4,10.8579,11.3362,0.4783
Sr3MgTc,27.6986,24.6577,-3.0409
RePtSe4,53.5715,43.9091,-9.6624
NaCuBiS2,35.6344,29.2765,-6.3579
TlFePS2,48.0066,38.7794,-9.2272
In3SbRh,31.7874,27.3391,-4.4484
AcYLuHg,37.2346,36.153,-1.0816
MgCo2BTe,16.8253,14.7161,-2.1091
RbU(CuP)2,22.3276,21.0358,-1.2917
In(NiAu)2,25.527,27.1925,1.6654
In2NiAg2,18.8207,17.5857,-1.235
AcLaPa,56.162,55.2275,-0.9345
La2Pm3TaN6,16.9436,16.6892,-0.2544
CeNdSc2,15.0326,17.3291,2.2965
La2MoPb,42.9163,37.7701,-5.1462
LaMo2Pb,34.5339,33.1033,-1.4305
LaMoPb2,38.3073,37.642,-0.6653
ZrCrBr2,46.2966,38.8467,-7.4499
La4SbOs,49.4381,39.4927,-9.9454
YTlCuHg,30.5458,26.909,-3.6368
Y2NiHgPb,65.2146,57.9606,-7.254
NiTeC2O,37.4644,27.2358,-10.2286
DyHf(UAs2)2,42.8253,39.1813,-3.6441
Y2HfAgHg,55.929,41.758,-14.171
Li2YHgIr,19.8905,18.4343,-1.4562
PaCuTc2,65.08,58.974,-6.1061
AcMoPt,49.2897,45.2954,-3.9943
InNiTe,23.1765,23.9463,0.7698
NiAuF2,17.396,20.3458,2.9498
TcNi2Te,37.1768,34.3515,-2.8253
SiNiTe2,26.7625,24.1736,-2.5889
NiTe2Os,33.6249,34.0013,0.3764
NiSbTe2,39.1031,33.5907,-5.5124
Na(InSb)2,30.6408,27.5247,-3.1161
Rb2Ba2Te,6.479,6.5356,0.0566
TcPtSe4,62.2954,49.0819,-13.2135
PrTiAl4,3.4273,3.9085,0.4813
Na2CaLa2,29.2375,23.4043,-5.8332
NiAgTe2I,29.9604,27.0233,-2.9371
HfTiNi2,22.6878,15.9889,-6.6989
SrCaSc2Rh,20.8151,14.2599,-6.5551
CaScRhAu,29.4143,24.9683,-4.446
Ac4CoTe2,49.094,49.2539,0.1599
ZrAl4Ge,26.4311,22.9806,-3.4505
CeAgBi2,36.2671,37.2904,1.0233
CoB2Te,1.056,6.6439,5.5879
Ni2AgTe2,21.6473,20.6306,-1.0167
SiSe2N,28.8586,23.2167,-5.642
Rb2NaTe2,21.6693,19.887,-1.7823
Tc2AsRh,54.5774,45.4596,-9.1179
MoSBr2,18.9082,18.6251,-0.2832
NiTe2Pt,40.1192,34.5067,-5.6125
TcNiTe2,40.6759,37.5997,-3.0762
Si(SeN)2,23.1935,18.4997,-4.6939
CeErSi4,18.3494,15.202,-3.1474
NiTeC,31.1457,24.4847,-6.661
CaHoSi4,3.3117,1.3212,-1.9905
La2CoTeAs,36.3341,28.5809,-7.7532
Ni2TePt,31.0777,28.0279,-3.0499
Ac2Tb(PtO4)3,22.6225,20.3173,-2.3052
NiTe6Ir,37.6874,36.3265,-1.3609
SrErAu2,33.6361,35.6265,1.9903
AcEuAlPt,45.8035,41.4762,-4.3274
YHgBiF2,22.5443,21.3049,-1.2393
YZrV2Hg,82.9506,64.7459,-18.2047
Ni2TeAu2,26.0394,28.2879,2.2485
Ba2NaSb2,22.0404,19.8,-2.2404
SiMo3Br,16.1716,16.5291,0.3574
FeNiSbTe2,45.4984,37.0927,-8.4057
CoTeAsF2,29.5869,24.5374,-5.0495
CeHoSi4,18.164,15.0122,-3.1519
CsPrPu2O8,15.1571,14.7686,-0.3885
NiSbTe2Ir,40.3786,35.784,-4.5947
Rb2BSeF6,8.7496,8.0832,-0.6664
NiTeC2,44.5633,34.1902,-10.3731
Hf(CoBi)2,47.0476,40.792,-6.2556
CePmSi4,17.5493,14.3891,-3.1601
CePaSi4,24.6893,21.7595,-2.9297
Ni2TeAs2,25.456,20.3377,-5.1184
NiTeC,37.1727,24.4847,-12.688
Ni2GeTe3,27.5777,24.8984,-2.6793
NbCr3Os4,42.0394,40.4372,-1.6022
NiGeTe2,29.5443,26.7945,-2.7497
CrNiTe3,37.6537,33.6687,-3.9849
SrY2HgPd,26.4988,22.9321,-3.5667
Ac3BiP2Pt9,70.0489,54.6334,-15.4156
SmYLuHg,27.1977,26.5459,-0.6519
Te2POsN,43.7865,38.0528,-5.7337
TlNi2TeOs,31.5224,31.6418,0.1195
Nb2CoSnTe,71.4703,59.3887,-12.0816
ZrTaO3,34.4345,27.6711,-6.7635
Cr3FeMo2,7.2102,8.5186,1.3085
FeNiSbTe2,45.5751,37.0927,-8.4824
Er3TlCu8,15.8794,17.4094,1.53
PbAu2F,35.0269,38.9945,3.9677
Si2NiTe,20.033,16.5608,-3.4722
Ca2CoGeTe,15.696,15.0794,-0.6166
NiTeC,31.1866,24.4847,-6.702
V2In2Pb,65.0682,54.5633,-10.5049
Ni2Ge2Te,21.7767,17.3887,-4.388
NiSb2TePt,50.12,38.9787,-11.1413
RbTl2InRu,46.3302,43.8349,-2.4954
Tb3(ErTm2)2,24.681,27.3788,2.6978
Tb4Pm2Er3,22.665,25.315,2.65
ReNiTe2,52.6516,40.9431,-11.7085
Rb(BaTe)2,12.6884,12.9502,0.2618
RbNiTe,12.5067,12.8468,0.3401
BeNiTe,11.3647,13.4299,2.0652
Co2NiF,28.0766,21.5414,-6.5353
NiAgTe,26.6938,24.4608,-2.233
TeIrOsPb,39.1921,43.6975,4.5055
NbCr4Ru5,25.8549,25.1251,-0.7297
Rb2Ba2Te,7.0326,6.5356,-0.497
Ni2AgTe,21.8133,21.1708,-0.6425
NiTe2As,34.68,30.0607,-4.6194
ZrMnPt,78.2963,63.2871,-15.0092
Na2CoCSO7,10.6003,11.2527,0.6524
Rb3CoTe2O9,8.5921,7.1712,-1.421
TeIrPb2,48.2499,49.094,0.8441
TbYSiHg,28.3853,26.2531,-2.1322
AcTh(GePt)2,53.6161,46.9388,-6.6773
NiTe2Os,33.3142,34.0013,0.6872
SrCdMo3,20.5392,19.5898,-0.9495
Nb2AlCoTe,78.4259,60.5617,-17.8643
NiTe2W,34.5817,33.5251,-1.0567
Cr6CoTe2,16.458,14.7873,-1.6707
NiTeAu2,35.9739,36.4188,0.445
Zn2CoAs,14.8378,11.3439,-3.4939
TlNiTe,33.101,34.0725,0.9715
Hf2CoTeAs,72.844,53.5318,-19.3122
Pr(Ni3Rh)2,17.9087,15.4996,-2.4091
NiTe2Au,35.0121,34.5847,-0.4274
NiTe2Pt,45.0875,34.5067,-10.5808
GeMoRu,15.3683,17.4009,2.0326
MnBeCl,36.4755,29.017,-7.4585
Cr3Tc,20.6863,18.1542,-2.532
YTmHgTe,29.979,28.1142,-1.8648
Na2TlSeS,40.402,33.7694,-6.6326
Al2HgW,11.3717,13.7313,2.3596
BeNb2Ni,72.3024,59.479,-12.8234
BaGaSnPb2,29.0316,28.0829,-0.9487
Yb6NiTe2,32.6465,32.7867,0.1402
VCoTeAu2,55.7752,48.8258,-6.9494
LaNpSi4,9.0874,6.4173,-2.6702
SbOsPb2,48.813,48.255,-0.558
SbOsPb,46.913,46.933,0.0199
ScCoAu2,22.4557,25.0313,2.5756
LiHf2CoTe,68.5263,50.3528,-18.1735
TeOsPb,40.0476,41.6283,1.5807
SbTeOs2Pb,46.3504,45.1813,-1.1692
TiCoTeRh2,44.5279,34.7983,-9.7297
NaRh2Au,38.6573,32.4938,-6.1634
CsPrCrHS,16.6108,13.8223,-2.7885
Cr5Re3,20.5498,22.7075,2.1576
Cr5Re3,20.5494,22.7075,2.158
CaGa4CoIr2,20.2081,19.6262,-0.5818
V2CoTeAu,72.1851,58.7391,-13.4461
LaCeSi4,22.0082,16.1964,-5.8118
SbOs3Pb,47.4334,47.3202,-0.1132
Hf3Tl3NiTe8,61.3028,50.946,-10.3568
AlTc2W,57.7426,51.0634,-6.6791
PrPbAu4,39.0648,40.7274,1.6626
NaCe(ErSe2)2,35.9204,31.5124,-4.408
Hf2CoTeRh,77.7014,56.7985,-20.9029
Na2SbPb2,39.7208,37.3985,-2.3222
YTiHg2Ru,20.9238,17.0253,-3.8985
AlReW2,30.1033,36.5525,6.4492
Cr4Ru3W,30.134,23.9389,-6.1951
YThHgC,43.9205,40.3797,-3.5408
TcW,66.7058,6.7254,-59.9804
Ac3Ga2SbPt9,70.1451,54.3288,-15.8163
Li(Tm2H5)2,9.4275,11.1996,1.7721
YHgSbTe2,35.8994,31.12,-4.7793
CeGdGe2,17.5372,20.4865,2.9492
Sm5Co2Te,16.4924,19.0418,2.5494
Y(AgS2)3,31.8361,21.6331,-10.203
CuSnRh2,53.7684,42.8513,-10.9171
SbPt2Br,67.0053,51.4918,-15.5135
K2FeTc,30.6098,25.9242,-4.6856
ReP2S,40.7131,37.144,-3.569
Al2InW,16.2761,18.9299,2.6538
Al2HgW,11.6345,13.7313,2.0969
Na(Cu2As)2,10.0941,10.9295,0.8353
TlFe3I,16.0838,16.9618,0.878
NdScS2,43.5032,38.387,-5.1162
Ag2RuBr,28.4003,23.0524,-5.3479
LaSmSi4,22.0515,16.2399,-5.8116
Be(NiBi)2,20.8099,23.0039,2.194
Al2WAu,17.8184,22.9981,5.1797
NaAl3W,16.2803,16.4318,0.1515
TmUSb,41.1131,42.7013,1.5882
V2FeP,73.4559,59.0552,-14.4007
CaScV3,83.8943,62.8995,-20.9949
Hf3CoTe,97.2861,70.4474,-26.8387
Tm2Al3W,11.9519,16.5209,4.569
Na2ZnPb2,30.0704,29.1692,-0.9012
Li2AlW,13.8458,14.4582,0.6124
Sr2BiB,20.7998,22.6087,1.8089
Al3PdW,13.8924,15.7949,1.9026
SrBrF,7.6411,7.165,-0.4761
Na(CdBi)2,34.3395,34.2817,-0.0578
YRe2HgOs,36.8893,36.5379,-0.3514
Al3WC,22.875,19.6746,-3.2004
TaSi4Mo,40.789,31.4253,-9.3637
Co2Te3Pd,22.3878,21.7435,-0.6442
Tm3CoTe,22.3402,24.4597,2.1195
LuCoTe,26.5478,28.1756,1.6278
Au2IO,44.3303,40.7273,-3.603
U2GeH3,17.8667,20.4519,2.5852
Pu4SiAu,58.1682,58.0314,-0.1368
Si4TcMo,27.4368,22.1176,-5.3191
AlPt3W,62.9065,48.1657,-14.7408
ZrFe2CoTe,40.3848,33.629,-6.7558
Al2HgW,11.3448,13.7313,2.3865
NbSi4Mo,35.5586,28.0599,-7.4987
CoTeSeBr2,29.4305,24.2772,-5.1533
Y2VHgBi,57.2535,47.4817,-9.7718
Tm5CoTe2,25.1791,25.6206,0.4415
AlZnW2,22.0533,26.0524,3.999
CaAcSbPt,51.5496,43.9705,-7.5792
TaGaCoTe2,45.5515,38.242,-7.3095
Li4AlW,9.6432,10.0576,0.4144
AlInW2,25.3192,30.0447,4.7255
AlInW2,25.3187,30.0447,4.726
AlTc2W,57.9365,51.0634,-6.873
Hf2Nb2Au,114.7194,88.0768,-26.6426
AlPt2W,54.6734,44.7418,-9.9317
ZrCo2AgTe,37.8644,33.4315,-4.4328
Ca2AlPbW,21.6845,22.9835,1.299
Ac2TmSb3Pt4,64.2422,52.574,-11.6682
AlRhW4,34.732,35.9959,1.2639
Hf2Nb2Re,121.9935,94.8914,-27.1021
Mg3Pa,15.8674,17.8412,1.9738
Sr11Pd4Pb9,28.2899,29.0665,0.7766
ThHgOs,29.68,36.7886,7.1085
Tm5CoTe4,31.7753,32.1299,0.3546
Hf(NbIn)2,93.304,74.0948,-19.2092
UPaSi4,32.1338,29.3031,-2.8306
Cs(BaCa)2,5.4464,7.2024,1.756
CeThPa,52.8404,56.813,3.9726
CaAl2W,12.8043,15.1991,2.3948
CoTePd,19.77,19.4233,-0.3467
TaTe2Pb,43.6002,43.4074,-0.1928
TaTePb2,46.3742,47.0223,0.6481
CaAl2W,12.9274,15.1991,2.2717
CsLa2Ta,37.4688,31.5845,-5.8843
Al(WSe)2,29.2006,28.3142,-0.8864
TmCoTe,21.0534,24.1065,3.053
VSb2Rh,60.6229,47.9403,-12.6826
La(HfMo)2,74.4263,56.062,-18.3644
BeZn4Mo,11.9323,10.4055,-1.5268
La2BiMo,37.5214,34.6459,-2.8755
AlSbW4,34.1864,36.5555,2.3691
CsTl2BiF6,17.0183,18.6207,1.6024
Tc3IO,75.0985,60.7463,-14.3523
K2Ca2Hg15,1.3635,1.5514,0.1879
ThCoTe2,39.0335,39.8107,0.7771
Y2ZnInHg,21.5335,19.2176,-2.3159
Pa(HgCl2)2,10.7529,12.3756,1.6227
K2Tl15Sb2,46.0911,45.5227,-0.5684
GaCo3Te,14.6033,15.3027,0.6994
ZrCoTe3,46.7217,41.6187,-5.103
CoTe2Pd,29.3618,27.2919,-2.0698
SmCoTe,23.7092,25.0806,1.3715
LiCo3Te,13.7922,13.604,-0.1882
LiPr2NpTe5,23.4977,24.207,0.7093
TaGaOs,48.1781,44.6924,-3.4857
Cd2CoRuO6,8.7977,8.6367,-0.161
SrY2(TlHg)2,30.5881,28.7368,-1.8513
Y2CuHgC,36.3989,27.8272,-8.5716
Y9Tm4In11,20.8774,20.3565,-0.5208
CoSb2TeO,35.5309,31.4049,-4.126
Ba4Pu3CoO12,9.6168,10.3187,0.7018
YbZn2Co3,20.5651,14.854,-5.711
PrThSi4,19.5099,16.5142,-2.9957
Rb2TiInBr6,8.7579,8.8309,0.073
InCoTe2I,27.5138,26.5289,-0.9849
YHgRh2W,39.7865,31.1429,-8.6435
AlSbW2,31.7844,33.422,1.6375
BiTe3As,34.6258,34.7448,0.119
Al2TlW,24.2261,26.6714,2.4453
Ac3CoPd2O9,21.8673,21.5689,-0.2983
CoTe2WI,32.3183,30.8848,-1.4335
HfZn2Co,43.5345,30.7609,-12.7736
SbRu2W,48.9116,41.2498,-7.6617
Li6HgAu,7.062,7.3302,0.2683
LuNbNiIr,55.8115,51.8774,-3.9341
YZnHgW2,30.0162,27.9497,-2.0665
BeGeSbW,20.5312,21.0508,0.5196
Ca2GaSb,13.8066,13.8918,0.0852
YSc2HgB,41.7285,35.6789,-6.0495
CoTc2TeI,53.0626,45.4942,-7.5684
Y2TaReHg,44.3554,37.636,-6.7194
ScCoTe2O,70.0917,61.8616,-8.2301
TaAg2GeC,35.0519,28.9677,-6.0842
Ta2Ge2W2C,33.121,34.0961,0.9751
Li2Si,8.8574,9.0561,0.1987
CoSbTeI2,29.1244,26.5514,-2.573
TiCrSi4,19.6681,15.3229,-4.3451
Rb2BaCuF6,0.0,0.768,0.768
Y2HgBW,59.8606,50.506,-9.3545
RbNaW2,26.0605,24.7745,-1.2861
Gd2SbPd,30.0368,30.1842,0.1474
Kr,12.5356,12.5629,0.0274
YScBeHg,16.3932,14.0819,-2.3113
Re(PS)2,50.0762,41.1109,-8.9653
ZnMoBr,11.7869,13.7229,1.9359
NiTe2I,28.5103,27.5657,-0.9447
AcPuSbPt,67.0454,60.865,-6.1804
NiTeWI2,29.2062,27.67,-1.5361
YHf2HgP,73.2456,50.8688,-22.3768
Pt3IBr,62.3905,46.1239,-16.2666
NiTeOsI2,28.3923,28.2596,-0.1327
Th11In9Tc4,52.8868,51.2116,-1.6752
AgH4Br,4.1549,4.8677,0.7128
AcNdSbPt,55.0539,49.1967,-5.8572
PaSbMo,33.7062,37.1533,3.4472
Mg(Cu2H3)2,9.4479,7.1632,-2.2848
Ta(NbRe)2,80.0002,72.3248,-7.6754
Ta(NbAu)2,82.8825,73.5038,-9.3786
U2Si6IrOs,31.5164,29.0878,-2.4286
TlMo2Cl,25.1848,24.0904,-1.0945
YHgBi2S,43.9307,38.997,-4.9336
YHgPdPt,39.7358,31.082,-8.6539
NaAgSb2,33.269,28.9319,-4.3371
CsTl2FeF6,11.5784,13.165,1.5866
Ta2NbMo2,38.7058,39.1912,0.4854
Ac11Tl9Zn4,49.5966,50.4435,0.847
YZnSnHg,21.0484,18.2966,-2.7518
Tb4Dy9Zn11,17.9544,19.2203,1.266
CoNiTe2,43.084,37.3757,-5.7083
FeOsRu2,36.3585,31.6246,-4.734
MnTl(CoBr4)2,24.751,21.8722,-2.8789
Si4TcW,31.3822,26.2017,-5.1805
Ti3Al5,5.0095,6.023,1.0135
KBa2Nb,36.7242,30.1803,-6.544
LiU2CoO8,15.735,16.4449,0.7099
Re2SnP2,53.6728,44.4893,-9.1835
ReSnP2,30.561,27.801,-2.76
LaTaPt4,73.9415,56.3675,-17.5739
AlAuSe2,36.3491,32.0616,-4.2875
ScCoIO2,72.6952,61.6376,-11.0576
Na2Th(TlS2)2,48.253,40.6987,-7.5544
Al2AuSe,25.4232,24.175,-1.2482
PaGa(CoO4)2,12.4414,12.934,0.4926
In2NiTe4,30.4347,29.7102,-0.7244
Al2Au2Se,25.9088,26.0057,0.0968
BaPrPt4,58.0397,42.3297,-15.71
AlAuSe2,36.7378,32.0616,-4.6762
NpCo2RhO8,10.7906,11.0486,0.258
Ba2CuW,13.1103,14.0195,0.9092
AlAu3Se,39.1325,37.6112,-1.5214
Ac2CoBiO8,15.1915,17.0907,1.8992
AgAu2Br,34.7303,33.8287,-0.9015
PaCo(AgO4)2,11.4214,11.8245,0.4032
Sr(HgPd)3,6.8973,8.1699,1.2726
AgAu2Br,34.6102,33.8287,-0.7814
Pa2CoCuO8,16.519,16.4922,-0.0269
PmCo(AsO4)2,8.6289,9.2291,0.6002
LiZr2NpS4,60.3297,48.3268,-12.003
AgAu2Br,34.5483,33.8287,-0.7196
CaSiSbTe2,34.5576,28.8808,-5.6768
K3Tl5Hg2,27.1636,27.3332,0.1696
Pm4Pr5Sc2,9.088,9.7196,0.6316
Hf3(ZnCo2)2,58.2353,40.0206,-18.2147
HfZnCo,55.0266,36.9248,-18.1018
GdYCoHg,31.2597,28.4275,-2.8322
CdCo(TeO4)2,10.4407,9.8133,-0.6274
Pm2PrSc5,11.0656,10.8386,-0.227
PrGd3F,17.5598,18.6426,1.0827
FeOsRu2,36.646,31.6246,-5.0214
Sm2Cu(NiPt4)3,63.8928,47.4527,-16.4401
LaCo4Mo,15.5087,15.465,-0.0437
SnRu2I,26.1056,25.3311,-0.7745
Si2PdRh2,29.1992,21.3987,-7.8005
SrLa2TiI,30.8572,24.8221,-6.0351
Sc2PbI,21.0658,23.5118,2.4459
YInHgBi,30.9875,29.9089,-1.0786
YZn2HgOs,21.8287,21.2211,-0.6077
Na2Sr2Ga,16.7512,16.0669,-0.6842
Sr(ScTc)2,95.4447,79.3324,-16.1123
Pr2DySc,5.7592,7.834,2.0747
FeSnSb2Te,40.1372,33.5829,-6.5543
Y2VGaHg,48.1928,38.1866,-10.0062
BeBr2Cl,7.4444,8.6191,1.1747
ZrNp2O11,7.5105,9.0921,1.5816
Np2TiO11,1.0777,4.215,3.1373
PaCoPdO6,8.4944,10.5878,2.0934
Hf2Sc3Ga2,45.4971,35.0341,-10.4629
RbPu2CoO8,12.6119,12.7963,0.1844
PrNpCoO6,2.4931,3.6768,1.1838
CsCaIO2,41.4164,35.3619,-6.0545
Li2TeSe,22.1589,19.3763,-2.7826
HfAlCu2,42.0635,31.1131,-10.9504
BeBr2Cl,7.0571,8.6191,1.562
YTlHg,33.4856,31.4597,-2.0259
YZn2Hg,13.5107,13.5762,0.0654
MnSnPSe,42.9641,36.5657,-6.3984
InMo2I,19.2502,21.1185,1.8683
LiTe2Se,32.9269,29.1599,-3.767
Cs3Ca(GaO3)2,25.3394,22.0691,-3.2703
YHgGe,19.4524,17.8452,-1.6073
YHgW2,33.6619,32.9665,-0.6955
NaScS2,38.4773,36.2134,-2.2639
Lu2TiCd,23.227,25.4391,2.2121
Sm4Rh3S,30.9251,24.9571,-5.968
SrCo(TcO4)2,17.0617,14.5425,-2.5191
Sm(FeCo)3,17.4116,13.3534,-4.0583
Ni3SbTe,25.6423,22.0699,-3.5723
YHgI2Cl,40.0024,38.4265,-1.5759
Ni2SbPb,32.4098,29.4553,-2.9545
NiSb2Pb,41.963,36.6918,-5.2711
Y2HfHg2,43.8892,32.5632,-11.326
AcGdNiPt,48.0715,43.1025,-4.969
CeErPuZr,56.3439,54.7134,-1.6305
MgCoNi2B,23.2784,18.106,-5.1723
GdY2Hg,32.503,28.8419,-3.6612
PrGdPa4,49.2356,51.2338,1.9982
Y2ScHg4,15.055,12.893,-2.162
HfReAs2Se,63.2807,52.3479,-10.9328
Mn4FeRu,80.8608,63.1853,-17.6756
K2TmAgF6,6.1001,7.0059,0.9059
Ce2Zn3CoCu12,12.5589,12.6394,0.0805
Pu2Tl3CoO9,19.3476,20.1423,0.7947
RbScAg2F6,6.3599,5.7775,-0.5824
BaSrSe4,33.7119,26.0414,-7.6705
Y2VHg2,41.2744,32.4403,-8.8341
Ac2La2RuPt2,62.4686,50.519,-11.9496
Cu2Ir2Pt,32.2891,31.6147,-0.6744
CoBiRh2O,34.242,28.1423,-6.0997
Y2HgGe2,18.5699,17.2791,-1.2907
USnSe4,46.3077,41.6527,-4.655
SrAc(ZnGe)2,18.2321,19.8976,1.6655
HfRe2BSe,56.8515,47.0328,-9.8187
SrCa4Sc,10.1911,8.2627,-1.9284
TlReAs2,28.2094,31.6786,3.4692
Co3AsIr,22.4387,20.4161,-2.0226
Cr2GaCoCu,21.774,16.7456,-5.0285
CaGa3CoCu,13.5854,11.891,-1.6944
RbH4Os,3.003,4.705,1.702
Tl2ReAs,38.2288,40.0982,1.8694
CdIn2Fe(CuS2)4,38.048,29.3962,-8.6518
CaVTe2,54.0973,46.5214,-7.576
BeReRh,21.6103,22.9053,1.295
Be2ReRh,22.1955,21.953,-0.2425
Y2ZrHg,49.9056,41.9352,-7.9704
YHg2Pd,17.5325,15.4688,-2.0637
BeReRh,21.3964,22.9053,1.5089
Tl2CdCuSb2,33.237,32.0561,-1.1809
Y2TiHg,34.9639,27.5425,-7.4214
Nb3(CuS3)2,70.305,54.3636,-15.9413
Tm2ZnS5,37.7817,30.2126,-7.5691
BeCuRh2,30.2956,22.2333,-8.0623
Ge2Ru2Rh,21.5809,20.0988,-1.4821
CoTe2PdN,65.3644,58.4215,-6.9428
EuMnN,42.9095,37.4422,-5.4673
Cs2KBa2,11.2565,11.753,0.4965
UTaSe4,42.1768,37.9525,-4.2243
LiTe3Se,35.376,31.5709,-3.805
Li2MnAg,33.0805,26.8555,-6.225
Ac3NiB2Pt9,66.4701,51.189,-15.2811
Cs2LiReO4,20.9921,20.8064,-0.1856
TlAgPt2,65.3935,51.5549,-13.8386
AcGa2Pt2Au,50.4889,43.2415,-7.2474
TiCr2Au,29.5279,28.4769,-1.051
EuZrHg2,31.3887,28.4907,-2.898
Li2MnAg,33.0345,26.8555,-6.179
Ac4IrPtI2,53.4873,52.199,-1.2883
Y2HgF,26.3259,23.462,-2.8639
TaCo2Si,37.1635,29.7715,-7.392
SiHgBr4,6.794,5.5196,-1.2744
TaTcSe4,53.0981,44.1622,-8.9359
Co2CuAg,28.6373,23.1385,-5.4988
AcPmPPt,44.6633,40.9241,-3.7392
RbTaNi2Bi,23.154,23.6674,0.5134
ZnCdPb2,33.1292,34.5611,1.4319
ZnCd2Pb,24.7441,25.7785,1.0344
NaTaCu2Pt,35.1443,28.3869,-6.7573
Ca3GeSb,14.5438,13.1125,-1.4313
YHg2Pd,13.9088,15.4688,1.56
YScHg2,10.1932,10.899,0.7058
YHgGe3,16.1793,14.9506,-1.2287
InGa2Tc,28.2013,26.2858,-1.9154
Ac2TiSb3Pd4,34.0502,32.4004,-1.6498
Tb2Th2Sc3,28.6964,31.3993,2.7029
In2TcBr,36.3681,32.6017,-3.7664
Ac2Si4AgPt3,47.9308,37.5956,-10.3352
Na2LaRe,32.5491,28.5117,-4.0374
Y2Ga2Hg,18.5915,16.5089,-2.0826
KSi2IrSe8,38.9614,31.4783,-7.4831
BaAlC3,45.9284,30.7527,-15.1757
Mg3Zn2Bi3,21.5401,23.0229,1.4828
Y5HgPb4,34.9515,34.1942,-0.7573
AlZnCoIr,31.0988,23.3376,-7.7612
FeSbAu2,45.0463,41.1907,-3.8555
Na3NbI,48.511,39.0903,-9.4207
Cd2CoAs,18.5062,17.4558,-1.0504
Sm2Y6Tm,12.5532,14.891,2.3378
K2ZrNi,29.8227,27.1463,-2.6763
TiSbRh3,40.2831,30.661,-9.6221
CdCoAs3,14.9886,13.9309,-1.0577
AsPb2,34.4696,38.8195,4.35
TbSbS,41.681,35.6926,-5.9884
ZnCd6Sn,17.9996,18.6857,0.686
TiSb2Rh,29.4339,25.294,-4.14
Er3ScAg2,25.7714,25.6813,-0.09
NpU4Pa,68.9392,71.3154,2.3762
Pr2HfSc,34.9805,26.336,-8.6445
Co2SiW,17.2032,18.1403,0.9372
Sr2GaTe5As,28.6953,27.0517,-1.6435
Tm4Ni2Ru,15.4891,18.4378,2.9488
Sr2GaAsSe5,33.5011,28.3101,-5.1911
Ac2BeSi3Pt4,56.5326,44.1213,-12.4113
PaIr7,46.1557,48.8137,2.658
Rb(InCu)2,8.5204,10.1525,1.6322
Li2MnOs,35.8527,32.4504,-3.4022
LaAgBi2,42.9867,40.2009,-2.7857
PmTh4Pb15,53.6308,54.6579,1.0271
Na2Bi2Pb,42.0052,41.2008,-0.8043
Hf2Zr2Sc3,63.9257,49.1999,-14.7258
YBe3Hg,11.9223,9.9814,-1.9409
Yb6Cr,32.6139,32.3162,-0.2977
La2GaTe5Au,35.6158,32.1174,-3.4983
Rb2BaGaI5,10.921,11.1981,0.2771
La3(ScAg)2,32.5498,25.6888,-6.861
Mg3Ta,11.42,13.5817,2.1617
Ba3YHg,22.6804,19.2599,-3.4205
Sc2TaGa,67.8402,57.1427,-10.6975
CsTaN2,17.4092,19.1227,1.7135
TlAgPt2,65.3488,51.5549,-13.7939
Y2CrHg,38.9676,31.0719,-7.8957
NaScS2,38.1302,36.2134,-1.9168
YHg3Mo,17.0293,12.5062,-4.5231
LaGa2AgAu5,37.0789,35.3513,-1.7276
Rb(TmCu)2,12.1981,14.7867,2.5886
Ac2HfGe4Pt3,56.9223,45.9328,-10.9895
Y(HgTe)2,23.5404,20.8322,-2.7082
YTm5Hg4,19.9136,20.7705,0.8569
Y3HgAs,25.1411,22.0713,-3.0699