Formula,E_hull_DFT (eV/atom),E_hull_ML (eV/atom),Delta (ML - DFT)
Lu6ZnSb2,32.6545,32.0057,-0.6488
Hf2CrTe,85.2151,63.3914,-21.8237
CrCoRh2,28.7356,22.4727,-6.2629
Nd2AlSi3Ni4,15.4448,14.3269,-1.1179
TiNbTe3,54.2881,49.6968,-4.5912
Ca4MnW,27.6522,24.6121,-3.0401
TbPr2Sn3Pt4,42.8221,33.0013,-9.8207
InSiMo,16.9172,16.8748,-0.0424
Tb11Pr4Y9,17.1483,18.4095,1.2612
NaPrAs,4.9756,7.2557,2.2801
Pr6DyYEr2,4.2883,5.7198,1.4314
Y2MnCrAu,53.2669,43.9003,-9.3666
In2SiMo,17.7281,17.6753,-0.0528
Dy3YEr3,26.5686,28.3328,1.7641
YSiGeIr2,38.7953,35.8189,-2.9764
BeVCu3,34.8323,26.9519,-7.8804
In2GaBr,14.7839,15.6295,0.8457
InCoMo3,15.3393,18.0319,2.6926
Be3ReSn,16.6586,15.4936,-1.165
In2GaBr,12.1274,15.6295,3.5021
CoTcW2,46.0541,44.7763,-1.2778
In2Ga2Br,10.7972,12.507,1.7099
BaSi2Pb,20.9642,18.8048,-2.1594
CoRe2Hg,22.0721,25.2037,3.1317
TlFeRu2,39.017,33.5071,-5.5098
TlSbOs2,45.661,46.4582,0.7971
ReRhS2,50.9582,40.6028,-10.3554
In2SiMo,17.7882,17.6753,-0.1128
Co2CuTc,43.9437,35.81,-8.1337
Ca2ReAg,20.9785,20.4054,-0.5731
LiP2Br,14.9076,14.3302,-0.5774
TcBSb3,46.7544,37.0448,-9.7096
NaAsIrW2,34.5277,34.6911,0.1635
HfTaS2,72.7845,56.1184,-16.666
HfTaS3,70.0841,51.7161,-18.3681
Zr3TlSi,73.3872,61.4761,-11.9111
Sm4Ga3Au,20.95,22.9157,1.9658
YScAsBr2,19.907,16.3887,-3.5184
Li2Y2TiS6,38.6932,28.0811,-10.6121
CeSi2Pt5,61.8847,44.073,-17.8117
Cr3CoTc,27.29,22.5935,-4.6965
Cd2TeOs,30.9051,31.6697,0.7646
MnZn3Ir,36.9208,29.836,-7.0848
Ac2InPtAu6,51.9585,50.5991,-1.3595
Re3GeS,50.3218,43.6096,-6.7123
Na3GdBr6,15.5784,15.9098,0.3314
CoReOs,29.8387,35.4456,5.6069
Sm3Al3Si2Au,26.2212,24.4121,-1.8091
Li2YTi,18.7882,14.4795,-4.3087
CaLaLuTh,39.2691,37.5261,-1.743
In2SiMo,17.7466,17.6753,-0.0713
CaIrI,28.9611,23.0018,-5.9593
NiAg2F6,12.9485,11.5308,-1.4177
Sm(Ga2Au)2,17.76,19.9123,2.1523
BaTaW2,29.7742,34.0161,4.242
NaBeZnAu3,30.0147,28.1063,-1.9085
BaTaW2,29.3854,34.0161,4.6307
HfRe2S,70.6215,58.6187,-12.0028
ReSe2S,49.121,41.3279,-7.7932
SiIr3Br,32.5369,32.7227,0.1857
BaTa2W,28.7267,32.1079,3.3812
KAg3Pt,40.6364,29.4517,-11.1846
Os3RuPt,48.5962,44.6781,-3.9181
NaCaNd,18.249,18.1265,-0.1225
BaRuW,31.9057,27.1681,-4.7377
Ba2TaW,20.3186,22.6788,2.3603
K2AcCuBr6,12.673,14.1032,1.4303
BaRuW2,34.4522,32.1207,-2.3316
ReOs3S,47.0262,45.4896,-1.5366
SiMoIr2,31.8928,31.0873,-0.8055
Ba2RuW,24.9013,20.9208,-3.9805
HgPd2F6,5.6035,6.1201,0.5165
Sm6HgAu2,26.8697,28.5903,1.7206
CaLaTm4,30.1082,28.7428,-1.3653
Ca6Au2SeN,22.3611,20.4716,-1.8895
YSc2Br,9.5265,10.5447,1.0182
Sm2Si2Au3,31.0091,30.5322,-0.4768
Ba6Cd2HgN,1.5509,2.7237,1.1728
ScTaMo2,72.1004,63.5321,-8.5683
ReTeW,40.8078,43.6789,2.8711
PmSmMnAu,48.926,45.2064,-3.7195
ScTaMo,91.4013,77.6919,-13.7094
Li4Y3TiS8,34.0624,25.4531,-8.6093
Mn3CdRu,67.7141,53.3297,-14.3844
NaLa2TlFe,42.1881,33.5472,-8.6409
LiAsOs,17.4332,20.6008,3.1677
YSc2Br,9.4841,10.5447,1.0606
RbReSb2,28.0926,24.8296,-3.263
ReTeW2I,38.2866,39.3834,1.0967
Na2BiAs3Pd4,20.1529,20.2292,0.0763
ReTeWI,36.2357,37.8478,1.6122
ReTeW2,40.4131,43.769,3.3558
Li2CoRe,12.5972,14.763,2.1657
Er2Ga4Pd3Rh,22.8966,20.7825,-2.1141
TaVSe6,62.3424,49.9266,-12.4158
CrGaI2N,21.022,18.7331,-2.289
YTi,9.6803,0.0,-9.6803
Cs3InNi,20.5117,20.9025,0.3908
RbTlZn3,15.9439,15.6947,-0.2493
Y2SnSe2,30.57,24.5508,-6.0192
Er3GaRh,23.162,23.0803,-0.0817
CoRe2Ir,32.447,39.3339,6.8869
Hf2Zr6Fe,97.4645,77.0417,-20.4229
SrLiNb,52.8076,43.1404,-9.6672
ReSi2Hg,18.3355,16.0588,-2.2766
PI,11.404,8.524,-2.88
YScBr2,11.8262,11.5956,-0.2306
TaSiAs2,28.3884,26.6609,-1.7275
TlInRu2,26.0949,28.985,2.8901
Ta2SiAs,34.6613,35.0873,0.4259
Zn6XeO6,29.4052,19.6051,-9.8001
Sc(AlAu)3,19.018,20.1224,1.1044
NaUGa4,21.1542,21.8218,0.6676
Ca2POs,21.8975,23.5173,1.6198
Co2MoPb,16.8041,18.9309,2.1268
Tm2Zr2Sc,46.2871,41.2386,-5.0485
TaInTe2,35.0303,36.81,1.7797
MnNbSi,76.422,60.9088,-15.5131
GdP,0.0,26.3845,26.3845
Sm3TmBi4,39.6363,41.8032,2.1669
Zr6Cd2Fe,69.7046,58.8706,-10.834
SrLiNb,48.2687,43.1404,-5.1283
LiY2TiO,34.9121,27.8242,-7.0879
LiEr2Ga2Rh5,25.4171,20.6505,-4.7666
Pr2U(FeN3)2,12.9939,12.9393,-0.0545
YSc2Br,9.6253,10.5447,0.9194
Ac2BeSnPt6,69.3341,52.4174,-16.9167
Na2PtPbC,51.8588,39.8774,-11.9814
Rb2RePd,13.0054,15.0078,2.0025
LiSc2V,35.4086,29.3111,-6.0976
CaAlMo2,19.8886,16.3684,-3.5201
Re3BiS,49.7896,47.5422,-2.2474
ScNb2Au,77.0861,69.145,-7.9411
Pu6Si2H,39.9313,40.9912,1.0599
YScBr,11.3774,11.9243,0.547
CaAl2Mo,11.8633,10.9045,-0.9588
YScBr,11.9327,11.9243,-0.0084
Rb2SnPdBr6,11.3413,10.6928,-0.6486
NaAcI4,28.7662,29.5239,0.7577
Sm2MgC,23.0088,23.2334,0.2246
LiAsPb2,28.8795,30.2359,1.3564
Y3Si4,33.0021,26.7141,-6.2881
Mn2Cd2Br,50.1717,40.7126,-9.459
CrTe2P,48.0521,41.3191,-6.7331
NaTh2PaSb4,49.7981,45.7625,-4.0356
AcCe2Th,45.1998,48.3578,3.158
TlAsIr2,37.5958,40.1474,2.5516
Ca2TaSe,44.5601,37.8763,-6.6838
Al2CoCl,16.9342,11.0517,-5.8825
SiMoOs2,31.7826,32.8649,1.0823
NaTe,23.9301,22.5905,-1.3397
Al3GaC,17.3187,13.9408,-3.3779
NaLiInTe3,25.623,23.6075,-2.0154
Tl(In3Ga)2,20.779,22.0865,1.3075
Sr2Ca7Y,11.0737,9.8126,-1.2611
Al2SbPd,13.1655,13.0826,-0.083
SiMoOs2,31.7782,32.8649,1.0867
ZrVRu3,55.5506,48.0844,-7.4662
Er2HfZn,52.8317,44.4567,-8.375
Cr2Pd2Br,18.6364,17.4639,-1.1725
Te2MoPd,33.5646,30.7031,-2.8615
Te2MoPd,33.0148,30.7031,-2.3116
TbEr3Pb,19.6866,25.6715,5.9849
SiMoOs2,31.9898,32.8649,0.8751
TeMoPd2,27.1762,25.351,-1.8252
LiYPAu2,33.3962,29.6086,-3.7876
Ge2Bi2Sb,30.8796,29.8888,-0.9908
NaSiIr2,31.5962,31.1237,-0.4725
CdAgIr2,34.8301,35.0872,0.257
Pm6Ga2Sb,18.0814,19.9747,1.8933
Tm6Ga2Sb,22.1804,24.1941,2.0137
LiTb2Pa,30.3877,33.1623,2.7745
CdAgIr,31.9644,30.9081,-1.0563
Ac2NdGe3Pt4,53.0123,43.1826,-9.8297
Ho6Ga2Sb,20.5275,22.5435,2.0161
Sr6Ga2Bi,13.8556,16.0451,2.1894
Sr6Ga2Pb,13.7892,15.6626,1.8734
Sr2TlW,35.6713,29.5733,-6.0981
SmSnAu,16.093,21.1859,5.0929
Be2SiPb,28.6187,25.7859,-2.8328
Y2MnTl,44.6448,40.3477,-4.2971
Sr2TlW,38.6356,29.5733,-9.0623
BeSi2Pb,31.9647,26.7395,-5.2252
NaEr4TmSe8,38.1286,33.9215,-4.2071
Ac2UP3Pt4,55.8067,46.045,-9.7616
Sr2NbCl,48.0505,41.0993,-6.9512
In(ReS)2,36.7841,33.5246,-3.2595
SrNd2Sm,22.1621,24.6868,2.5247
BaNi3S5,35.9054,25.3003,-10.605
ReBi2S,52.4776,50.1643,-2.3133
Pr4Ga12Pd,9.6993,8.4238,-1.2755
ZrOs,70.286,10.8503,-59.4357
Ge3RuW,25.4565,22.6905,-2.766
CrMo4Pb,20.9944,23.3011,2.3067
LiRe2As,23.1363,25.8913,2.755
CeNd4In15,20.5931,21.8806,1.2874
CrBiPb3,44.6222,45.0476,0.4254
Y5Ru3,21.4127,16.8229,-4.5898
GeRuW,34.3079,31.2046,-3.1033
CoWBr,27.7872,24.4806,-3.3067
ReAgTe2,39.5171,37.0824,-2.4348
Nb2SiIr,78.3045,68.0784,-10.2261
Al2TlMo,19.1155,22.1184,3.0029
Mg2PW,64.7654,55.3131,-9.4522
LiRe2As,23.1118,25.8913,2.7795
AlTlMo2,31.4511,27.608,-3.8431
ReSbP2,36.7246,35.0268,-1.6979
LaTbIn6,24.2137,23.1717,-1.042
LiRe2As,22.829,25.8913,3.0622
YMnV3,100.3811,78.6928,-21.6883
BeVNi2Pb,39.4464,34.8417,-4.6046
LiRe2As,23.2346,25.8913,2.6566
CrAg3,21.9029,16.7553,-5.1476
Ce5Ga3,18.4035,20.0354,1.632
SrNbBr,43.6458,37.7793,-5.8665
Pa2ZnSi2Ir5,31.8411,33.7522,1.911
NbBi3Br,64.6838,59.5983,-5.0856
CoW2Br,30.0751,29.8354,-0.2397
Li2(AcPt)3,51.9494,43.065,-8.8844
CrPPb3,54.0805,48.9766,-5.104
TbPm3NdTh,26.8274,30.3658,3.5383
HfGa5Tc,39.53,31.8858,-7.6443
Cs(Tl2Au)6,48.2427,48.6362,0.3935
PrOsRu,27.608,30.7923,3.1843
In(Ga3Ag)2,14.8146,13.7781,-1.0365
SmAl2Au5,32.9395,34.826,1.8865
Y3MnTl,38.5043,34.8013,-3.703
Ac6As(PtBr)2,53.8484,49.1503,-4.6981
SmPdRhAu,34.2354,32.8144,-1.421
YGaGePt3,44.7801,32.4296,-12.3506
BaSrY2,34.1786,28.9957,-5.1829
Al2CoCl,16.8557,11.0517,-5.804
Ba(ThGa3)2,20.8063,21.6052,0.7989
SmCuRhAu,31.716,30.5763,-1.1398
SiMoPt2,52.0874,38.64,-13.4474
CsSb(AuO2)2,33.414,31.6729,-1.7411
Ba(CdGa3)2,10.8513,11.2169,0.3657
SmTmRhAu,37.2149,36.0699,-1.145
SmEuInAu,29.5304,31.8344,2.304
TbCe4Sm,25.4125,27.4832,2.0707
Nd2(Ni2Ge)3,14.8088,13.126,-1.6828
SiMoPt2,52.044,38.64,-13.4041
BaAlSn2F8,14.8655,13.6725,-1.193
Re2SiMo,30.7707,30.2852,-0.4855
SrTcPb2,53.4295,50.3262,-3.1033
Ac(CeGa3)2,17.7323,19.5339,1.8015
Ca2ZrAs,29.6844,26.8153,-2.869
Ce2SmGa6,13.3077,15.3674,2.0597
YTm(MgZn2)2,11.3489,11.681,0.3321
CrPBr2,32.6701,28.2525,-4.4176
YZrIn,45.358,40.3036,-5.0544
CrC2Br,45.8664,36.2937,-9.5727
Cs2UO6,11.8012,14.6333,2.8321
MgPaCu2,25.8577,24.7454,-1.1123
CrPBr2,33.3118,28.2525,-5.0593
LiTbPuIn,30.9008,31.8781,0.9773
Re2SiMo,30.5504,30.2852,-0.2653
SmGa2Au7,37.0678,38.2554,1.1875
Ce(PaGa3)2,22.9574,25.1023,2.1449
InCoAg2Hg,18.8413,16.0849,-2.7564
La(YEr)2,22.399,22.6468,0.2478
TbAgAs2,13.8366,15.4286,1.592
CaMnV4(CuO6)2,44.3781,37.2417,-7.1364
BeGaSi2,16.6783,12.8463,-3.8321
Tl2CrAs,31.3658,31.8152,0.4494
La(PaGa3)2,25.9169,25.9778,0.0609
SmHfAu2,65.2546,56.6162,-8.6384
SmHoRhAu,36.6413,35.4928,-1.1485
SrMnRu,43.3995,37.056,-6.3435
Ga2FeSe,19.0686,15.8234,-3.2452
SiTeRu3,29.5854,23.8302,-5.7552
SmPtRhAu,52.1985,43.7411,-8.4574
CdSiSe2,32.7383,26.2533,-6.4849
BaCa2Pb,15.5236,17.2185,1.695
CrNiW2,33.7419,35.9011,2.1593
RbNaAgI3,17.5218,15.9725,-1.5493
FeOsSe,42.8496,36.7453,-6.1043
Pu2InGa6,23.7954,25.1705,1.3751
In2RuPb,27.514,29.1807,1.6667
TaPtSeBr2,41.635,33.7453,-7.8898
FeOs2Se,42.8278,38.5744,-4.2534
In(Ga3Sn)2,12.4984,13.3946,0.8962
Ge2As2Se,29.3463,27.6403,-1.706
NaPmPrSn,15.9993,17.2477,1.2484
FeOs2Se,35.6307,38.5744,2.9437
Sr3CrMo,15.6589,14.1689,-1.4899
Tm2ThAl,32.5184,35.8403,3.3219
La2PuGa6,24.5378,22.2163,-2.3215
Ca(InTe2)2,26.2763,26.1212,-0.1552
NaNiBr,10.5434,10.2108,-0.3325
ZrW2C,49.2498,48.2236,-1.0262
SmRhAu,34.0571,32.1648,-1.8923
Na3AlPb,26.3284,23.5047,-2.8237
AlReGe2,39.3604,31.355,-8.0055
CdPIr2,34.3088,33.2965,-1.0123
BePCl2,5.5653,4.9431,-0.6222
Np4Ga12Pt,27.3934,26.9705,-0.4228
Er8GaP3S4,30.8709,29.5045,-1.3663
KHg2Br,5.0295,5.2359,0.2065
CaScPdRh,22.7154,19.0532,-3.6622
ZrWC2,65.3587,51.9604,-13.3983
RbNa2CrI,18.5219,16.1478,-2.374
ZrWC2,65.868,51.9604,-13.9076
SmEuSiAu,29.5297,29.8692,0.3395
Sm(GaAu)2,26.682,28.3708,1.6887
Nd(PaGa3)2,22.9094,25.2227,2.3133
Rb2CoCl6,0.2798,1.3035,1.0237
La(TmGa3)2,17.556,17.5086,-0.0474
ZrW2C,60.0437,48.2236,-11.8202
Rb2NaLa,20.3613,14.7309,-5.6304
Zr2CoBr,59.4795,47.694,-11.7855
Sm4Tl2Au,35.2692,37.2813,2.0121
TiSbOs,22.5273,25.0698,2.5425
Zr2CoBr,59.1863,47.694,-11.4922
NaCdAgPd,23.1063,20.8565,-2.2498
Ti2Sb2Os,21.3649,20.6993,-0.6656
SiMoRu2,22.0714,19.0435,-3.0279
SiMoRu2,21.9568,19.0435,-2.9133
CrRuW,34.4429,30.3094,-4.1335
TbAgSnAu,30.9609,31.2876,0.3267
AcZnCuPt,41.5015,36.2958,-5.2057
FeSiRu2,32.4623,23.1673,-9.2949
CrRuW2,35.3922,34.272,-1.1203
Rb2CrP2,23.6392,17.7969,-5.8423
CrRuW2,35.4802,34.272,-1.2082
Cr2RuW,28.028,25.241,-2.787
NaNiBr,10.5521,10.2108,-0.3413
SiMoRu2,22.2967,19.0435,-3.2531
NaTlZnAg,28.6374,25.9236,-2.7138
BaSiTc2,50.8003,41.2537,-9.5466
TlCoCl2,12.5747,14.5804,2.0057
Ba2SiTc,27.5895,22.3473,-5.2422
Er3Ga3Rh2,20.1292,20.5755,0.4463
Te2RhAu,45.5039,41.8181,-3.6858
La4NiPd3,32.6079,25.2015,-7.4065
Nd(TmGa3)2,14.5504,16.615,2.0646
SiMoRu2,22.0373,19.0435,-2.9938
BeP3Cl,7.3082,6.4225,-0.8856
Er3In3NiRu2,20.2447,22.4249,2.1801
Tl2RePb,45.4993,47.8579,2.3586
PbBr2,27.6751,25.4589,-2.2163
NaSi3Pb,25.5566,20.0796,-5.477
CrCo2Cu,23.2903,18.6869,-4.6034
Tl(ZnGa)2,16.6375,17.6984,1.061
Cr(CuBr)2,19.217,16.6051,-2.6119
CrCoCu,28.3532,22.0596,-6.2936
LaTeRu,36.95,32.3775,-4.5725
TaCdSeN2,23.1549,22.3413,-0.8137
TlZn2Ga,18.8105,19.9938,1.1834
TcP3Au,30.8167,27.7156,-3.1011
MgHg2,0.0,1.196,1.196
BaZn2Hg,2.2965,4.0668,1.7703
GdMgIn,16.8861,19.0738,2.1876
TcP2Au,37.0963,34.7267,-2.3697
Na2Mn(AgBr3)2,25.1145,22.2765,-2.838
YRh3,40.3894,30.6161,-9.7733
Tl2PbAu3,46.2272,48.2832,2.0559
Na2CdPt,37.095,28.8531,-8.2419
K(Pb2Au)2,45.1671,45.6444,0.4773
Ac5TePt4,71.0798,60.7301,-10.3497
Cr2InNi,22.0067,20.4808,-1.5259
TlRePb2,50.0139,51.8923,1.8784
NaPb6,48.5994,48.4363,-0.1631
HfCrRu,46.1886,36.9709,-9.2177
RbTl2Cr,27.3589,28.2979,0.939
CrOs2Rh,35.7601,28.3753,-7.3847
Tb3YN4,24.1977,24.3072,0.1096
Be2PCl,4.206,4.3416,0.1356
Te2Pb,45.5389,44.712,-0.8269
SnPb,36.705,38.9449,2.24
CaCuP,17.9037,15.6305,-2.2732
AlAgSb2,31.1145,25.3005,-5.814
PmErTh2Bi5,51.043,52.421,1.378
Ba2ScTc,62.3929,51.0662,-11.3267
ReIrPb,46.3492,49.6943,3.3451
RbCrBi2,27.9573,29.5045,1.5472
CsPuUO6,7.0862,11.8372,4.751
ZrFe2Cu,37.6305,31.3626,-6.2679
NdPuTlZn,38.6485,40.8017,2.1532
Zn2ReIr,40.0167,30.8871,-9.1296
Ca2AgBr,12.4343,11.7498,-0.6845
ZnReIr2,44.8927,40.5996,-4.2931
ReIr2Pb,45.6496,49.1056,3.456
Zn2RePb,38.723,32.1594,-6.5636
ZnReIr,45.2661,38.1915,-7.0745
CaPuZnSi,29.7088,27.6125,-2.0963
Li(PmRu)2,20.802,20.0467,-0.7552
Dy3BiN,20.5877,25.5723,4.9845
Li2Y(PPt)2,38.6556,28.4358,-10.2198
Re3IrPb,45.2418,47.478,2.2362
NaIr2Au,40.5173,41.5444,1.0271
Cr2POs,39.3626,35.3906,-3.972
TlGa2Re,27.6978,29.6928,1.995
Re2IrW,40.4181,46.6316,6.2135
TbY4N4,56.9088,48.8121,-8.0967
Sr(AgI2)2,23.2249,21.8669,-1.358
Na3SiPb,28.6543,24.2365,-4.4177
Rb(CuGe)2,4.8004,5.9449,1.1445
Sr2RuRh,34.5451,28.1301,-6.415
PmPr2PtO5,9.4758,4.8426,-4.6332
BeGe2N,28.5808,24.9383,-3.6425
CuGeP,12.7363,10.5384,-2.1979
TlGaRe3,37.7904,40.1122,2.3218
Ce4Ga12Ru,12.4208,13.6423,1.2215
BeCr2I,15.6029,16.0352,0.4323
Sr4TbTl5,33.0467,34.6295,1.5828
TaSiMo,68.0881,0.0,-68.0881
SiTe2P,29.7487,28.1137,-1.6351
TbNd(HoTl)2,30.4975,33.5235,3.026
AcPr2NdSm,16.9322,19.5671,2.6349
GaAsIr3,31.1001,33.4103,2.3102
Nd4Ga12Ru,12.3625,13.6755,1.313
Sr4FeSe,25.7007,22.07,-3.6307
PuNpZnGa,39.5612,42.0821,2.5208
BaCd2Co,13.7304,13.1441,-0.5863
YInTe2,24.9197,24.9073,-0.0124
Sr3SnBr,12.1604,12.4076,0.2472
Ag3CBr,35.059,25.5698,-9.4892
In6Sb2Rh,28.5597,25.3041,-3.2556
AsIrPb2,39.7052,43.5571,3.8519
PuZnBi2,47.2604,48.6351,1.3747
MnGeP2,28.9231,24.4591,-4.464
SrGdAl2,12.243,14.2631,2.0201
Ti2Si2Te,9.8009,9.6497,-0.1512
Sm2Al3SiAu4,29.6813,29.5909,-0.0904
YInTe2,25.2832,24.9073,-0.3759
Zr2Re2Mo,50.405,46.3519,-4.0531
AgW2C,69.2771,54.6449,-14.6322
MnV2GeC,85.177,65.803,-19.374
PrPu2As3,27.0705,29.5234,2.4528
TlAgRu,33.9757,32.4099,-1.5658
Cs2TcNi,38.6761,34.1552,-4.5209
SmGdAl2,14.6901,17.3529,2.6628
Pr2PuGa6,13.8723,14.6903,0.818
Pr2PaGa6,13.3452,14.3323,0.9871
ZnSi2Te,20.9888,17.5479,-3.4409
Ac2P4PdPt3,41.9606,34.8163,-7.1443
Ta2SiMo,59.8372,51.6036,-8.2336
NaHoLuTl,34.3151,34.9561,0.6409
SmGdAl2,14.9449,17.3529,2.408
La2NbCu,58.3681,45.3573,-13.0108
CsTcNi3,29.6458,26.7636,-2.8822
Sc(TcGe)2,71.6151,60.0351,-11.58
Tl2GeSb5,42.0763,35.8559,-6.2204
Np4Ga12Tc,27.6735,28.1739,0.5004
KTl2Sn,31.3289,32.9294,1.6005
LiTa2As,20.9925,25.104,4.1115
CuPb2W,38.4888,40.3922,1.9034
TbHfGa,52.9347,42.7802,-10.1545
PuMg(ZnGe)2,18.2292,19.4495,1.2203
Si2P3Pt,26.1069,20.5088,-5.5981
Sr3Pd5F12,0.0,0.0,-0.0
AcNd2SmEr,29.4711,32.1465,2.6755
Sr3Sn5F12,0.3699,0.0,-0.3699
CaYNb2(Zn3Fe8)2,21.2266,17.0502,-4.1764
Al(NiPt)2,32.9174,25.2773,-7.6401
Y3Pu5H12,0.0,1.0233,1.0233
Tl2CoCl4,17.3159,18.5761,1.2601
Tl2RuW,49.6228,46.0587,-3.5641
LiLaInHg,19.7844,16.1466,-3.6378
TlRuW2,46.3283,44.5814,-1.7468
SmAl4OsAu2,23.87,24.3043,0.4342
AgPPb,29.2802,28.0861,-1.1941
Co2AgIr2,19.7029,23.4247,3.7218
Tb4Ga12Tc,17.1083,17.5048,0.3965
YCu2P,24.9396,19.0134,-5.9262
CeGdBi2,40.2076,42.7476,2.54
Pr2AgPt,27.1999,20.0,-7.1998
Ta2AgP,29.6235,29.1305,-0.4931
Ta2SiMo,59.9333,51.6036,-8.3297
YTmIrRu,29.9627,29.4897,-0.473
Zr(NpGa3)4,28.0205,28.4417,0.4212
Ac2Ga6Ru,22.8631,22.9697,0.1065
LiTbSmBi,26.342,28.685,2.343
YP2RuS,33.5926,29.2301,-4.3625
Ac2PmPrNd,30.7409,33.3446,2.6038
La2Ga6Ru,18.7535,16.0822,-2.6713
RuPb2W,50.2041,48.8835,-1.3206
Sc2AlCu,21.1297,17.8712,-3.2585
Sc2AlCu,16.4452,17.8712,1.426
Ag5Ir,33.595,28.4462,-5.1488
Rb2RuW,37.2118,32.8155,-4.3963
CeLuTl2,39.7917,41.6665,1.8748
AlV2P,81.7699,64.1462,-17.6237
MoAs2Os,23.1656,22.7729,-0.3926
InAg2Ir,31.5915,29.1477,-2.4438
Na(TcNi)2,38.3852,34.4839,-3.9013
Tm4Ga12Os,15.0997,16.5465,1.4469
MoAs2Os,23.2121,22.7729,-0.4392
SiTcMo,40.9831,36.3235,-4.6596
LiTcAs,34.3627,30.0398,-4.3229
TiAl3Zn,6.073,6.3236,0.2507
Ag2Ru,27.3234,23.4633,-3.8601
RbNaTe2I,26.845,24.779,-2.0661
AsOs2Pt,46.284,42.2074,-4.0765
AcDyYHo,33.5795,36.6662,3.0867
AcLa(GePt)2,51.2288,40.7382,-10.4906
Sm2NpGa6,18.4957,20.3832,1.8876
SiTc2Mo,54.4731,46.5586,-7.9145
Co2AgRh2,22.4753,18.5651,-3.9103
LiTa2As,21.103,25.104,4.001
MnNi2Ag,61.3869,52.2948,-9.0921
TlAs2Ru,26.7264,24.3897,-2.3367
Sr(AcGa3)2,20.8566,22.523,1.6664
NdLu2Al,24.006,26.6474,2.6414
Tl(Ga3Sn)2,15.9393,16.7706,0.8313
SmAl4PtAu2,26.9777,25.3052,-1.6725
Na3Mn2P2(CO7)2,31.2217,27.7802,-3.4415
Ac2Zn4Ir3Pt,42.2953,36.5208,-5.7745
Y2MoPS,45.6321,34.8414,-10.7906
Sr3VBr,37.9904,31.1252,-6.8652
Tm(NpGa3)4,24.0649,25.566,1.5011
OsRuAu,36.0214,40.1134,4.0921
Tm4Ga12Re,15.0265,16.2626,1.2361
Pa4Ga12W,23.6899,25.4929,1.803
U4Ga12W,24.1723,26.0197,1.8475
YBeMo2,26.9911,19.2429,-7.7482
Ca3BCBr2N,1.3372,2.8177,1.4805
Cs2UAgO6,13.7181,14.4927,0.7746
Al2IrRu,20.2946,19.391,-0.9036
Nd2LuAl,21.5848,23.5109,1.9261
LiPaFe,38.4644,37.185,-1.2794
TbGd2In,26.0401,28.7642,2.7241
LiTc2As,49.2088,41.8439,-7.3649
Zr(AlGa)2,19.5217,18.8584,-0.6633
AsRu2Rh,36.7952,28.8947,-7.9005
As2RuRh,25.8352,22.364,-3.4713
CoAg2Mo,21.7091,19.5051,-2.204
Ac2MgIn6Ag,24.8721,26.0423,1.1702
NiAg2Sb,33.2898,25.1363,-8.1535
NdEuTl2,38.366,40.4754,2.1094
Na(CdSb)2,28.1758,24.3238,-3.8519
Na3Ta(CuSe3)2,34.4607,28.6191,-5.8416
SrLa2Br,33.7576,24.146,-9.6115
Ac2Sn4Ir3Pt,42.5545,41.6088,-0.9457
PmEu2Tl,33.075,35.0095,1.9346
K2YMo,27.2689,19.2657,-8.0032
BaZnCd,8.8511,10.1199,1.2688
SiTc2Mo,53.8517,46.5586,-7.2931
SbAsRu3,24.3151,22.0931,-2.222
Si2AgPb,28.975,24.1732,-4.8018
NaMnCdSn2,38.0551,36.0152,-2.0399
BaEuAlTl,29.58,27.1404,-2.4396
Si2TcAg,38.8173,29.9598,-8.8575
SbAsRu,7.6965,23.6888,15.9924
LiTc2As,49.2376,41.8439,-7.3938
Cd4CoAg,19.4937,19.2964,-0.1972
SiTc2Ag,58.1554,47.2433,-10.9121
AcEuTlBr,38.0984,39.4863,1.3879
Ca2SbBr,23.871,22.5936,-1.2774
SiBi3As,46.7861,44.0839,-2.7022
NaLiCuAu,19.6425,19.7009,0.0584
AlCo2Ag,24.1684,17.1588,-7.0096
HfMoP2,41.7442,30.3851,-11.359
NiAg2Ru,22.3234,19.8838,-2.4396
RbCrW2,19.6141,22.6782,3.0641
Al2CoAg2,21.129,14.3022,-6.8267
BeCd2Re,50.334,39.3084,-11.0256
Sm4Si3Au,23.2323,22.3919,-0.8403
BeCdRe,60.018,46.2844,-13.7336
Ac4Ir2PdPt,55.7867,54.169,-1.6177
BeCdRe,60.2196,46.2844,-13.9352
Er2HfGa2Rh5,38.4921,29.8056,-8.6865
LiTe2As,23.6259,23.7956,0.1697
Pm2(GaIr)5,25.238,27.2968,2.0587
LiTlAs,20.3634,21.8516,1.4882
Mn2CrRu,56.0548,45.3676,-10.6872
SiTe2Mo,31.4827,27.188,-4.2948
Be2CdRe,44.3807,34.9247,-9.456
CsFeSb2,39.2219,32.7866,-6.4353
LiTe2As,23.5225,23.7956,0.2731
SmDy2(YHo)2,23.5798,26.0034,2.4237
Re2NiAg,49.5415,37.9156,-11.626
MnCrRu2,35.2408,31.7861,-3.4547
AsIr2Br,27.7745,29.8879,2.1135
Tl2SiMo,33.9051,33.383,-0.5221
CaNbGeTeP,45.0526,39.5312,-5.5213
LiTlAs,20.4254,21.8516,1.4262
Sm4AuSe3,34.9376,32.9395,-1.9981
Na2Sr2F,15.7728,13.3004,-2.4724
Re(GeSb)2,41.0598,33.1954,-7.8645
Re2GeSb,47.5739,41.5773,-5.9966
Er(Tm3Fe)2,18.3641,21.2081,2.844
AsIr2Br,27.978,29.8879,1.9099
CsRbCdCl,11.703,11.699,-0.004
YReSb3,39.1898,33.3966,-5.7932
CuTe,13.4419,4.8127,-8.6293
Cr2Co2Tc,16.6747,16.5925,-0.0822
Tm6GaFe2,18.7332,20.2642,1.531
NaPuBr3,19.277,20.7086,1.4317
Tb6InFe2,15.631,17.341,1.71
In2Ni2Sb,23.3343,20.7523,-2.582
Ge2BiSb,25.7857,25.3733,-0.4124
FeAgSb,38.9644,31.9027,-7.0617
CoClF2,2.6809,4.734,2.0531
LaSmFe4,12.848,12.3856,-0.4624
ZrTlAu,65.5844,60.9506,-4.6338
Sm2Ag,26.9681,26.7349,-0.2332
Sm6InFe2,14.6442,16.6344,1.9902
Ca2WBr,15.5328,16.6744,1.1416
LiAsW,17.7148,19.1535,1.4387
Co3AgAu,21.9064,20.6642,-1.2422
CoAg2Au,30.418,26.9246,-3.4934
VRuSe3,58.5346,46.8651,-11.6696
CdSb2As,30.0151,25.8675,-4.1476
DyYHoPu,35.5849,38.502,2.9171
Na2GeBiAu,32.5775,30.9242,-1.6533
Ti3ZnPb,15.515,17.6602,2.1453
Sm7Ge5Au,20.121,21.9151,1.7941
Co2AgAu,20.1371,21.3375,1.2005
Sm2RhAu,35.842,34.7234,-1.1187
Y4AsPS2,30.4052,27.1697,-3.2355
Pr3Pb,9.2077,11.3913,2.1836
YB,0.0,59.0541,59.0541
La3Pb2,46.4834,38.5606,-7.9228
YB,51.9185,59.0541,7.1356
Sm4InAu2,30.207,32.7206,2.5136
Sm2Al4GaAu3,20.5375,22.2589,1.7213
Mn3AlBi,71.8531,57.7311,-14.1219
CeY2Pu,31.3106,33.3689,2.0583
Sm3InAu2,30.8906,33.3478,2.4572
Sn2GeIr2,21.485,25.4724,3.9874
CdRuC2,36.1966,29.687,-6.5096
Zn2CrSb,18.9839,15.4802,-3.5037
AgRuAu3,39.3018,38.1168,-1.185
AgRuAu2,36.2847,35.9421,-0.3426
AcZn2PdPt2,45.7451,37.4785,-8.2666
Sr(DyS2)3,35.8057,28.5541,-7.2515
NaAlIn2Te,22.3237,20.9303,-1.3934
Tl4CdPt,52.4474,48.4439,-4.0035
Ac3CuB2Pt9,69.2078,51.4327,-17.7752