Formula,E_hull_DFT (eV/atom),E_hull_ML (eV/atom),Delta (ML - DFT)
Te2PtBr,43.413,36.1495,-7.2635
Nd3(YHo)2,22.6267,25.2841,2.6574
TePtBr2,40.5201,32.2473,-8.2728
Sm3(YHo)2,22.7833,25.4641,2.6808
K2ZrFe,31.6969,27.1288,-4.5682
Th2Zr(SeBr2)2,40.1182,37.8174,-2.3008
Sm6Co2Os,23.5564,22.6815,-0.8749
Sm6Co2Pb,19.2887,21.4592,2.1705
CsNp(HgO3)2,14.7162,14.4479,-0.2683
Ba2ScPdN,13.3423,11.3171,-2.0252
ThGaCu,28.8728,29.6966,0.8238
Dy6Co2Tc,23.9037,25.2691,1.3654
BeTePd2,22.2036,22.1707,-0.0329
PdRu2Pt,35.3253,31.4278,-3.8974
LiPrNi2,9.4378,8.3805,-1.0573
Er6Co2Tc,25.1819,26.9251,1.7432
Ho6Co2Tc,24.5013,26.2449,1.7436
NdEr3Tl4,35.3507,38.0969,2.7462
Er4ZrZn,37.1635,36.8678,-0.2957
K2SiMo,14.798,13.5602,-1.2377
CrTc2Ag,56.7442,48.1062,-8.638
CrTcAg2,41.6091,33.5119,-8.0972
ScMoPb2,40.5285,40.4978,-0.0307
Mg2GeSe4,16.921,14.9473,-1.9737
In2C,34.467,28.3679,-6.0991
Tb2Nd2YHo2,24.744,28.2118,3.4678
ScMoPb2,40.7512,40.4978,-0.2534
Zn2MoRu,13.0856,14.7984,1.7127
Ti2RhPbN,22.9451,21.4375,-1.5076
Tl2CdRe,70.245,59.4807,-10.7642
YPS2N,50.8539,41.1832,-9.6707
AcYTe2,39.2618,39.7589,0.4972
Sm5(YHo)2,23.2603,26.5521,3.2918
CdAgIN2,18.4788,15.9066,-2.5722
Sc(TiCu)2,12.1964,11.8243,-0.372
Y4Ho7,23.0704,26.1953,3.1249
TaIr2,31.152,39.8646,8.7127
CuSi2Rh,22.3663,16.1416,-6.2247
NiI,11.2421,13.7253,2.4831
Nd3Y2Ho3,23.3427,25.0393,1.6966
Zr6NbCo2,73.9751,61.9682,-12.0069
CuSi2Rh,22.121,16.1416,-5.9795
Zr6TlCo2,64.8779,55.437,-9.4409
Hf(Zr3Co)2,74.2713,59.6951,-14.5762
TeOs3Ru,39.5387,41.1235,1.5847
Zr6Co2Bi,64.8978,55.5507,-9.347
CsLaNbN3,28.8337,23.6908,-5.1429
Hf2GaSi4,51.3169,35.2493,-16.0676
Th2Be3Cu12Pt,19.9689,17.8291,-2.1397
TlSn2Ge,22.0056,24.3242,2.3186
Ni4W,0.0,1.9232,1.9232
OsW,0.0,0.0,0.0
TaAg3Te,36.0552,30.7547,-5.3005
Nb2Co6W,40.2676,36.3937,-3.8738
Ta2NbCo6,46.7337,36.3041,-10.4296
Cd(CuSi)2,10.6221,9.8084,-0.8137
Fe4OsW,55.8663,45.2371,-10.6292
Ac2Zn2Pt3,58.2256,47.3002,-10.9254
CdSb2Au,39.2365,34.8585,-4.378
UAgSb2,47.2492,41.4974,-5.7518
AcLaPm3Sm,31.3249,31.2454,-0.0795
SbAsRu,26.9515,23.6888,-3.2627
Zr4ReRh,80.0319,68.0824,-11.9495
TcGe2Pt,50.11,40.6849,-9.4252
Zr4SbPb,81.7842,69.7315,-12.0527
Zr2Fe3Ru,38.0232,30.7136,-7.3096
CaNbIN2,35.3936,30.008,-5.3856
NbSe2IN,55.0495,45.026,-10.0234
BaCdSb2,26.8915,22.5801,-4.3114
PbSe2F,39.3863,35.1984,-4.188
Tb(PmCo3)2,12.4279,14.8105,2.3826
BeNi3,4.4946,7.7971,3.3025
Cs2MgNpO6,14.3335,12.7538,-1.5798
Pm(ThCo3)2,21.3338,24.2882,2.9544
CuTeIr2,34.329,36.1218,1.7928
Ca2Th4Rh9,47.0876,38.9587,-8.1289
Ba2Sr9Ca4,9.5088,8.9631,-0.5457
NaFe2W,20.1602,20.9261,0.7659
Nd6Te2P3,20.6857,22.6837,1.9979
Tm4ZrZn,38.0168,37.7462,-0.2706
CrGa2Ru,11.408,11.9965,0.5885
Zr4ReTc,87.4595,75.1839,-12.2755
LiMoRhPb2,35.2149,32.9053,-2.3096
ScSeBr2N,17.3831,14.7036,-2.6795
Y2Ho2Tm5,26.4212,29.7093,3.288
Sb2AsOs,35.7886,28.5636,-7.225
SbAsOs,32.7569,31.5617,-1.1952
Bi2RhS2,49.4346,42.086,-7.3486
Zr4TlPb,82.6402,72.2046,-10.4356
Tb4ZrZn,35.3323,35.033,-0.2993
Hf6Cd2Co,100.6932,73.3104,-27.3829
Co(AgBr3)2,14.9998,12.0223,-2.9775
Mg3In5Sn12,8.3515,9.9476,1.5961
Zr3BeMo,65.5854,53.021,-12.5644
ZrBe2Mo,32.7463,27.1194,-5.6269
VGe2Pb,45.2821,39.9673,-5.3148
ZrBeMo2,37.6491,31.3938,-6.2553
Li2TaZn,11.8215,13.5369,1.7154
Tl5Sn,43.2766,44.2594,0.9828
Ce6CoAu2,27.9249,29.3098,1.3848
GdScInIr,32.3458,27.7597,-4.586
Sc2Mo2W,21.0135,23.0273,2.0138
LiIn2Br,19.5682,20.3311,0.7629
Tl2RhS2,52.5818,44.1374,-8.4444
RbCaLa,17.457,13.927,-3.5301
ZrAlOs2,46.0997,45.3711,-0.7285
AgMoBr2,17.8104,13.9549,-3.8555
BaCd2Cl,7.8606,10.5797,2.7191
HgIr3,26.9615,32.1089,5.1474
Sc3In3Ge2Ir,29.3257,22.5122,-6.8135
CdSnPb2N,37.9174,35.3475,-2.5699
ScPbSN2,31.8483,30.262,-1.5863
CePaZn4,20.2794,22.336,2.0566
GaBiI2N,23.6786,23.5218,-0.1568
Sr(Ni2B)6,5.3697,6.3063,0.9366
Ge2Sb2Pt,35.0386,26.0879,-8.9506
TbFe4Ag,9.9401,10.9359,0.9959
Ac3Y3PuTe8,41.5507,41.3771,-0.1736
Pr3Y2Ho3,13.4407,14.7097,1.269
Sm4Y3Ho4,23.1929,26.3187,3.1258
Sr(Ag2Sn)6,27.0869,22.1289,-4.958
LiMnP,41.4698,30.9316,-10.5383
PrGeSb3,16.2635,11.6482,-4.6153
NpRu,31.8317,40.6652,8.8335
Na2TlTeSe,37.5444,33.2366,-4.3077
Fe2Si2Os,14.2691,11.1874,-3.0817
Yb3Al2(CuP2)2,26.8174,22.9334,-3.884
Si3Os,21.9923,17.8752,-4.1171
Ba2NaZnN2,13.9945,11.6075,-2.3871
Th2Ga4Cu3Tc,29.4525,27.4654,-1.9871
GdNb2,93.1707,79.7414,-13.4294
NbAgPb2,70.0944,63.0559,-7.0385
AsIr2Au,36.5121,39.7492,3.2371
CdSb2Pt,49.7934,38.5772,-11.2162
Zr3TlOs,79.4188,69.2488,-10.1701
Nd5(YHo)2,23.0724,26.3248,3.2524
IrOs3,43.0283,47.8821,4.8538
NiICl2,6.653,7.981,1.3279
As2IrAu,27.8567,30.1141,2.2574
AsIrAu2,37.2372,39.5839,2.3467
IrOs5,42.0514,47.0584,5.0071
Pr2SmAl2,0.3925,3.4804,3.0879
Pb2C2F,41.996,37.4963,-4.4997
Al2RhPb,26.7165,26.1537,-0.5628
Nb2AgPb,92.2527,78.5973,-13.6554
BeTeIN2,34.1757,28.6677,-5.5081
K(SrRh)2,23.8453,19.3074,-4.5379
NaRuRh,39.5166,32.7282,-6.7884
Pd4Pt3,48.6868,37.8827,-10.8041
TiSn2Pb,33.612,30.2333,-3.3787
Ac2TbNi3Ge4,25.8857,23.6821,-2.2036
ReC2S,58.6636,45.0923,-13.5713
ReAsW,30.8798,35.4801,4.6003
Tb2Y5Ho2,19.8944,23.135,3.2406
AcZnPt2,62.2178,49.4625,-12.7553
Na4La3YTe8,36.3908,31.0819,-5.3089
Ga4CuTc,18.7795,16.8156,-1.9639
CdReSb2,66.6488,51.0477,-15.6011
K2NiAs,20.0258,15.9375,-4.0883
AcZn3Pt2,39.7162,32.452,-7.2642
NpPaSe,61.5378,61.0636,-0.4742
ReAsAu2,36.7423,38.7935,2.0512
Co(Ni3Rh)2,18.0173,14.6109,-3.4064
ReAs2Au,27.4125,29.3349,1.9224
TaCdSb2,36.5418,32.898,-3.6438
TaCdSb2,36.868,32.898,-3.97
BaMoBr2,10.8212,11.0148,0.1936
ZrCrSb2,49.0491,39.7775,-9.2716
SiTcC2,49.5912,37.544,-12.0472
ZrTl2Ga,48.3988,47.0261,-1.3727
ZrCrSb2,49.0837,39.7775,-9.3062
AcPa3(MnN3)4,33.0695,29.9465,-3.123
La12Pb3N5,18.9541,11.6624,-7.2917
YTa2Ge,34.0187,32.5229,-1.4958
La6CoRh2,39.4868,25.6977,-13.7891
Co(Ir3Rh)2,32.9505,34.1054,1.155
Co(Te3Rh)2,39.3806,35.2186,-4.162
ReAsAu2,36.4162,38.7935,2.3773
ZrAg2Ru,44.9883,38.1038,-6.8845
ZrAgRu3,38.5023,33.8003,-4.702
ScInIr,20.2279,17.4576,-2.7703
CuSiRu2,20.4651,16.9137,-3.5514
CsCrP2,27.5569,24.5175,-3.0393
RhPb2Br,44.7722,39.1759,-5.5963
ReGe3P,30.9756,26.2935,-4.6821
Cr2CdPb,22.9295,22.9846,0.0551
Tl2OsCl,37.7104,38.7359,1.0255
NaInPb,32.2493,29.4558,-2.7935
YCrP3,14.0089,11.1651,-2.8438
TbNd2ZrAs4,25.3897,25.4792,0.0895
Tl2CoTc,46.9653,45.0274,-1.9378
ZrPaAu4,58.7034,57.7605,-0.9429
ZrCd4Ag,34.3294,31.0998,-3.2296
ScHgPdRh,21.4678,17.7043,-3.7635
YZrPdPt,62.7079,49.7255,-12.9824
CrCdTe2,28.263,27.453,-0.81
Sr3La(YTe3)2,30.9678,27.9869,-2.9809
Zr7Os,91.3719,76.0344,-15.3375
CoCuTe4,41.8039,36.4166,-5.3874
KYBr,12.8703,13.6996,0.8293
BeSiRh,35.6355,26.6566,-8.9789
Li2ZrAg,32.6939,27.2266,-5.4672
TbErAlAg,22.2282,22.8064,0.5782
CdCuSi2,15.3781,12.4905,-2.8875
CaTb2Nd,20.791,23.5548,2.7638
Ti(SbTe)2,31.5993,27.218,-4.3813
RuPtRh,66.3497,49.1892,-17.1605
Li2ZrAg,32.8759,27.2266,-5.6493
ErSb2Au,36.3707,33.8215,-2.5492
AgTe2Rh,41.5211,35.4633,-6.0579
AgTe3Rh,41.7908,35.4245,-6.3662
K2NiP2,6.9946,7.6953,0.7007
Ag2TeRh,38.594,32.0534,-6.5406
TaCoAg2,47.9942,35.3479,-12.6463
CrRePb2,39.4563,41.2201,1.7639
AgTeRh,41.0192,33.1965,-7.8227
CdSb2Te,37.9273,32.4665,-5.4607
Mn(CuGe)2,26.6098,22.9226,-3.6872
CrRePb2,39.5608,41.2201,1.6593
Co(CuSi)2,17.987,12.6673,-5.3198
SiIr2Cl,26.9642,27.9653,1.0011
Na(CePb)5,37.3185,37.9537,0.6352
Co2RuW,27.2922,25.1778,-2.1144
CrRePb2,34.225,41.2201,6.9951
CuSiIr2,28.3193,29.8431,1.5238
CrRe3Pb,39.9558,40.5892,0.6334
PrNdPu4,51.5761,53.5063,1.9302
CoSbRh2,38.4073,28.7223,-9.6849
CrRe2Pb,36.0023,38.9869,2.9846
K3IrF6,7.5165,8.2377,0.7211
Ce2PmPr,17.5788,20.4446,2.8658
LiCoOs,0.0,6.9019,6.9019
Ti6Te2Ir,17.0302,18.5854,1.5552
LaY2Te3,32.8957,30.0288,-2.8669
CaRe2Pb,35.4935,34.5597,-0.9338
Cd4Mo2O9,9.9963,11.1902,1.1939
CaRePb2,38.1643,40.0598,1.8955
Ca3CrRe,21.8595,19.3202,-2.5393
Ca2CrRe,25.1251,22.5057,-2.6194
Ca2CrPb,27.3001,24.5316,-2.7685
Ca2CrRe,25.1277,22.5057,-2.622
TaCoAg2,47.8985,35.3479,-12.5506
Cs2Na2NpO4,17.2323,17.593,0.3607
CaCrPb,34.769,30.8633,-3.9057
KCu2N,2.2025,4.8061,2.6036
CaCr2Re,25.982,23.3388,-2.6432
CePm2Pa,35.7885,39.4161,3.6276
Ge2OsSe,27.8702,27.3567,-0.5135
Tl3ReW,48.1275,49.2885,1.1609
Ga2SnPd4,14.9199,14.6248,-0.2951
Cu3TeAu,22.6078,22.7363,0.1285
Mn2AuN,54.2747,44.8956,-9.3791
CuTe2Au,34.5758,34.0494,-0.5264
HfGa2Si,43.9544,32.9361,-11.0183
Al2CoCl,17.0241,11.0517,-5.9724
YPS2Cl,56.3522,50.3625,-5.9897
PrNd3Pt,31.4694,27.2769,-4.1924
In2RuAu2,30.6668,32.2106,1.5438
TiFe2Te,7.4695,8.131,0.6615
Y2Ho2Pu2Mn,47.1031,46.2403,-0.8629
CeY,19.4947,22.7341,3.2393
ScCrSb2,28.1458,27.0537,-1.0921
InRu2Au,24.9704,28.0214,3.051
Rb2NaLu,16.1087,14.7993,-1.3094
SrIn4Ni,19.7425,17.4592,-2.2833
K3HfCr,39.3455,28.8318,-10.5137
Er4Al12Fe,8.5869,10.2277,1.6408
CdSbAu,37.1574,35.4479,-1.7096
Dy4Al12Fe,8.1105,10.0796,1.9691
Y3SnBi,31.9114,28.9903,-2.9212
Tb2Sm2YMg2,18.0028,19.5393,1.5365
Tm4Al12Fe,9.0882,10.7006,1.6124
NaBe3I,18.8869,18.0921,-0.7948
KMgTc,36.6425,30.8775,-5.765
Ho4Al12Au,11.0799,12.6296,1.5497
CeSmGd2,27.3248,30.2273,2.9024
Ti2TeIr,23.6715,26.1637,2.4922
MnAu3N,49.2634,45.088,-4.1754
Sr2MnAuN,34.3514,30.5078,-3.8436
LiReRh,29.9232,27.517,-2.4062
YHfMn,60.5733,45.2701,-15.3032
NbAlPd,46.6843,42.6852,-3.9991
RuAuN2,34.8958,32.9465,-1.9493
HfIr2Au,61.8076,56.1585,-5.6492
Y3HfMn,57.935,45.0242,-12.9107
SeN2,16.8529,17.5054,0.6525
Gd2NiSn,27.2199,26.039,-1.1809
SmDy2Er5Sc,21.2945,23.8081,2.5136
CoAg2W,60.2726,46.7542,-13.5184
YCr2,18.6208,11.7011,-6.9198
Zn2Sb2Pd,21.9045,18.8414,-3.063
TlIrW2,43.4919,48.0836,4.5916
ErPuCuPd,31.1532,34.0042,2.851
YPPb3,31.4758,30.4575,-1.0183
NaTa2Mn,44.7978,45.5258,0.7279
Cs2Tm3NpO8,12.651,15.5964,2.9454
TaMnAg2,44.4081,37.7042,-6.7039
Nb2V3Tc,126.8437,102.2068,-24.6369
Dy6HgOs2,21.3183,24.7622,3.4438
CdSbIr,36.0018,34.825,-1.1768
Ta2MnAg,51.3643,46.54,-4.8243
Na2PrYTe4,27.4061,26.1346,-1.2715
KTlSb4,40.2504,33.2815,-6.9689
TlIrW3,45.3772,48.0555,2.6784
Hf(ThSc3)2,34.1202,32.4919,-1.6283
YbGeO4,0.4727,3.248,2.7753
CoAgAu,29.8891,28.6959,-1.1932
TlIrW2,43.3936,48.0836,4.6899
PuTh2Sb,61.8551,61.6455,-0.2096
Pt4Rh3,72.5136,50.3038,-22.2098
Dy(Er3Th)2,32.4667,35.5796,3.1129
Ac3Sn7Pt2,42.4354,38.8038,-3.6315
AcSnPt,51.6628,45.5922,-6.0706
Re2TcPb,57.3138,56.0125,-1.3013
TiTeI2N,20.1061,19.315,-0.7911
Re2TcPb,57.0174,56.0125,-1.0049
ZrReAs2,39.3982,37.898,-1.5002
ZrFeRe2,55.6469,50.112,-5.5349
Ac2Zn4CdCu3,19.6886,20.9663,1.2776
Y2ZrC,57.0542,46.9369,-10.1173
BaMoIN2,10.5344,9.9094,-0.6249
SnTeI2N,30.151,26.8911,-3.2599
K(CoBi)2,22.8358,25.531,2.6951
KZn2Br,9.3717,9.5557,0.1839
Ac4PtAu,60.2989,59.0319,-1.267
LiSm(GaAu)2,22.1726,23.7898,1.6172
Ac2Sb4Pd3Pt,44.9196,38.3313,-6.5883
AcTbPdPt,48.6022,43.5597,-5.0425
BaAl2Re,23.9116,19.5316,-4.38
LaPr3NdTh,16.1559,16.3881,0.2321
Sb2IrPd,38.3043,35.016,-3.2883
CrTc2Au,53.3655,47.5838,-5.7817
Al2SbIr,23.4677,23.2473,-0.2204
PtPbSe3,58.5618,46.9176,-11.6443
Ba4Te3Br,15.4986,16.6699,1.1713
NiGe2Ir,15.9646,17.3546,1.3899
Ca3Y2N4,8.5008,8.3207,-0.1801
CaPrRh,17.0906,13.1475,-3.9432
BaAl2Re,23.4446,19.5316,-3.913
CdSbOs2,37.7423,37.8832,0.141
PmSmTh,38.6471,42.138,3.4909
BeSi2SnO,40.3647,29.8846,-10.4801
Sr12LiHg6,8.7006,9.2509,0.5503
SrIO3,15.5045,14.3229,-1.1817
Fe2OsPb,35.9341,32.315,-3.6191
Fe2OsPb,35.8827,32.315,-3.5677
Ac6Pt2AuBr3,53.4877,49.5245,-3.9631
Fe2OsPb,35.8781,32.315,-3.5631
Ta2HgO6,7.6258,7.8972,0.2714
Re2SiRh,28.9875,28.5951,-0.3924
SiRu3W,45.5787,32.0853,-13.4934
ThPt4Au,77.7068,60.5474,-17.1594
Zr2TaW,68.2281,62.6552,-5.5729
Ac3PtAuCl,49.6655,47.1429,-2.5226
Y2HoThN4,32.5573,32.5909,0.0335
Zr2TaW,68.1182,62.6552,-5.463
Cs2VS2,52.5767,41.8504,-10.7263
Ac2Ga3IrPd4,29.3758,29.4532,0.0774
Nb2PbI,90.2815,78.1444,-12.137
BaNbAg,53.6061,44.3899,-9.2162
Tl2TeRu,37.1698,38.6681,1.4983
Y4HoEr3,15.9591,18.8873,2.9282
NaCdGa2,15.1448,14.7059,-0.4389
CdGaCu2,11.9449,11.6874,-0.2576
Ce2PrLu,19.7665,22.6268,2.8602
Pr2Y2HoEr,8.4985,10.7551,2.2565
Au2SBr2,32.2079,30.6209,-1.587
LaCoAg,30.144,23.9153,-6.2287
GaPbSe,36.1903,34.3815,-1.8088
PrSm2PaSb5,37.268,32.5373,-4.7308
Dy5Ru4Au,24.4086,27.4389,3.0303
SiMoI2N,17.4807,15.8153,-1.6654
NaCdGa2,15.1486,14.7059,-0.4427
Ca2MnIrSe,63.3689,47.112,-16.2569
Ta(TiSe)2,20.6074,19.9218,-0.6856
NaSiSe,24.9045,20.8065,-4.098
Ac4PtAuBr2,51.7846,49.1513,-2.6334
NaEu2Se,31.5185,28.6894,-2.8291
NaEuSe2,35.9407,30.7278,-5.2129
CrCuSbAu,28.3112,25.4972,-2.814
CdCuIr,23.9732,26.4929,2.5196
CdCuIr2,28.684,31.7474,3.0634
NaAgTe3,36.5644,32.4684,-4.096
AgOs2Pb,43.0038,44.8795,1.8756
NaCeAg2,28.0481,23.4656,-4.5825
Li2ZrRh,36.8118,29.686,-7.1257
AgOsPb2,45.1638,45.6881,0.5243
AgOsPb2,45.2014,45.6881,0.4868
Mg3CI,18.3598,14.9514,-3.4084
AcPt2Au5,59.6733,54.082,-5.5913
TaTi3Se,20.9876,20.7613,-0.2263
NaTeBr3,20.197,18.7714,-1.4256
LiPuSb2,40.1376,36.5118,-3.6258
ZrOsI2,47.4125,44.0795,-3.333
Cd3Re,54.2332,43.6981,-10.5351
Zr2OsI,65.6709,58.611,-7.0599
Pu2MnNi3,60.529,56.3264,-4.2026
La2ErPa,50.3171,44.5877,-5.7293
Pa2HgIr,44.1942,48.34,4.1458
Na2BeTlAs2,19.1655,17.2774,-1.888
Co2MoRh,19.3151,19.0587,-0.2564
NaHfSc,53.0545,31.5582,-21.4963
NiOsC,11.6156,16.1931,4.5776
LuPaTc2,71.3475,65.7578,-5.5897
NaCuMo,17.1152,12.2756,-4.8396
NaHfSc2,45.0665,35.0062,-10.0603
Rb2(Pb2Au)3,41.7999,42.7979,0.998
CrOs2,20.1187,27.7346,7.6159
Pd9(Pb2Au)2,30.835,32.2811,1.4462
Li2CaAc,17.8594,19.1359,1.2764
Y6Co2Sn,27.7713,22.9252,-4.8461
Li2CaTm,9.4452,10.8224,1.3771
Li2CaAc,17.9527,19.1359,1.1831
CaAcTm2,32.8676,34.7115,1.8439
CuSnRu3,34.5715,32.4331,-2.1384
CrCoOs,19.7929,23.4809,3.688
Pt2AuCl,58.2214,44.975,-13.2464
CePBr,6.2229,10.8722,4.6493
CoAgOs2,30.6409,32.7863,2.1454
LiCa3Sb,13.3847,11.0669,-2.3178
NaCu5Se4,21.1717,17.9592,-3.2126
NaFe2W,26.3914,20.9261,-5.4653
TaCd3,24.0772,25.7245,1.6473
CoOsRh2,36.5975,32.331,-4.2665
Ac2La3YSe6,47.0321,38.867,-8.1651
Sc3Al3Si2Ir,28.8363,23.148,-5.6883
Na3TaW,32.7518,29.3392,-3.4126
SrBeIn2,18.082,15.2628,-2.8191
TbPr2Sb3Pt4,50.0254,36.8594,-13.166
YCu2,21.2422,19.0273,-2.2149
GaTe2PI,31.2603,27.9782,-3.2821
Sn2TeRu,25.5058,26.4848,0.979
CoTcMo2,23.9455,32.2635,8.3181
NaAsOsSe2,48.1454,42.8141,-5.3313
Ba(NbI)2,65.9627,56.192,-9.7707
Pa2CoRu,39.0366,43.4633,4.4267
NaMoAs,16.8769,17.7631,0.8862
Ac2NdSb3,46.8674,43.4945,-3.3729
Ba2YRh,36.0537,29.4478,-6.6058
Hf4ZrPb,120.9883,89.6316,-31.3567
Lu2ThCd,38.0661,40.2568,2.1906
Lu2ThCd,38.2196,40.2568,2.0372
CrTc2Au,60.9284,47.5838,-13.3446
CoSiRh2,29.5183,21.818,-7.7003
CoSi2Rh,20.8044,15.6306,-5.1738
Sc(SnPb)2,32.2519,30.454,-1.7979
LaReSi,36.9268,30.3188,-6.6081
Ag2AuF6,14.0017,13.4124,-0.5894
CoReAg,27.1397,27.2694,0.1296
Hf6ZnFe2,88.5977,61.5355,-27.0622
CrTc2Pb,62.3309,54.6066,-7.7243
Y2Cu,22.786,19.5669,-3.2191
Y2Mg3In2,12.1901,12.0988,-0.0913
CuSiRh,24.9884,19.9817,-5.0068
AlGeTe3,36.2028,31.7244,-4.4784
SmAg2F6,13.5657,12.5133,-1.0524
Y(ReSi)3,26.4311,24.7345,-1.6965
TlCuMo3,32.8824,28.4646,-4.4178
SrCuN,0.0,0.0,0.0
Y2CoGe2,20.5489,17.4149,-3.134
LiPbW2,32.9694,36.7892,3.8199
NiGeIr,25.5011,24.0706,-1.4305
NaNdInPt,39.144,33.0584,-6.0856
Li2ZrTl,37.6324,34.4797,-3.1527
La2NbPb2,64.2403,54.2275,-10.0128
Li2ZrTl,37.5639,34.4797,-3.0842
NaSrNb,60.9382,50.7692,-10.169
Ag2AsW,61.6002,46.9963,-14.604
K2Pu2Br7,21.0588,21.5204,0.4616
Th2AgSb,45.7348,45.3639,-0.3709
Y3(GaRh)4,24.504,19.862,-4.642
TbTlAgTe2,34.3058,33.8106,-0.4953
Rb2(TmTe2)3,30.4111,30.4296,0.0185
ZrCd3,36.0928,33.4051,-2.6877
LaNb2Pb,97.283,81.4763,-15.8067
Cs2NaWCl6,8.1322,9.347,1.2148
Tl4SbOs,49.4011,48.5815,-0.8196
NaZrCd,44.0573,39.3288,-4.7285
LaPb3W,50.0301,48.0298,-2.0002
Li2ZrTl,37.5364,34.4797,-3.0568
Nd2Er4Tl,26.7375,30.5812,3.8437
Na3ZrCd,39.1486,32.1789,-6.9697
La2NbPb,74.506,60.8358,-13.6701
LaPb2W,49.3116,46.9049,-2.4067
CdPb2Au,43.0175,44.704,1.6865
TlCdAu,39.1019,40.2027,1.1008
ThAlCu,21.0491,24.3244,3.2753
GaHg2Pb,13.4092,15.489,2.0798
MnPI2N,43.3669,34.7996,-8.5672
NaZrCd3,36.8025,32.5367,-4.2658
AgAs2W,56.4765,44.325,-12.1516
Ag2AsW,61.4061,46.9963,-14.4099
Ag2AsW,61.4076,46.9963,-14.4114
InP2Se,19.0752,17.7404,-1.3349
Pr(PaSe2)6,50.1679,45.1044,-5.0635
NaCu2AuCl6,7.9986,7.692,-0.3066
CrTcRh4,49.9843,37.9313,-12.053
Pr5C2Cl9,1.1411,0.1578,-0.9833
Ca3(Mg2Zn)2,5.7954,5.8095,0.0141
Ca2MgRh,11.9772,10.9265,-1.0507
InP2Se,19.2561,17.7404,-1.5157
CoP4Pb,21.6401,19.7639,-1.8762
Li(CaPb)2,19.6608,21.9811,2.3203
Sn2As2Pb,18.978,20.4268,1.4488
Ba2HfPb2,45.3314,38.5729,-6.7585
CrTcRh,50.323,40.8535,-9.4695
CrTcRh2,50.0959,38.9667,-11.1292
Li2ZrW,35.0412,32.4298,-2.6114
ThAl(CdCu)2,21.8053,21.8876,0.0823
SrYO3,19.848,18.5286,-1.3193
CaMg2,0.3977,2.5214,2.1237
Ce4Ho2Rh9,39.1761,30.8762,-8.2999
RbNa(GeCl3)2,5.9269,4.2696,-1.6573
NaYb3,30.9624,31.0891,0.1267
Na2CrC,40.6792,34.7373,-5.9419
LaPr2Nd2Er,15.4681,15.2165,-0.2516
LaTaSi,34.6518,28.9788,-5.673
NiAg2Au,29.2046,26.7375,-2.4671
RbTe3Ir2,30.8733,33.2299,2.3565
ScFeSiIr2,38.9365,36.697,-2.2395
Li3RuSe,13.7722,12.3727,-1.3995
SmEuTlAu,37.3031,39.379,2.076
ReTcRh3,57.5666,45.2888,-12.2778
AcIn3NiIr,24.1215,27.185,3.0634
Na2CdIn7,20.9851,20.2942,-0.691
La2TmSb,44.1915,34.3263,-9.8652
KRePb,36.4421,37.5279,1.0858
Sb5(Te4Pb)3,33.8075,30.5805,-3.227
SiNiP2,10.0716,13.7587,3.6871
Pm2AlVO6,7.7988,9.3895,1.5907
CrBiI3,26.9009,26.5093,-0.3916
Na2Cd2In,19.9293,18.7629,-1.1664
Ac2In(SnPd2)3,28.9073,27.5282,-1.3791
ZrNiP4,23.074,20.2408,-2.8332
RuRh2Cl,41.5366,30.9682,-10.5684
Rb2CaP,16.8337,13.2727,-3.5611
Ga2RuPb6,39.314,40.2313,0.9173
CsAc2Sc,39.9063,41.5928,1.6865
LiRuSe2,28.241,25.4953,-2.7457
BeCrNi,12.5788,14.1505,1.5717
LuZrTl2,58.2788,55.5216,-2.7572
Be2CrNi,14.2851,14.2413,-0.0437
CaHfIr2,65.8345,51.0541,-14.7804
Ba2YAu2,37.072,34.1023,-2.9697
ThAl2Cu3,12.4515,14.3193,1.8678
LuThAlCu,28.2445,30.4587,2.2142
CaHf3Ir,102.0088,71.2115,-30.7973
CaHf3Ir,103.8693,71.2115,-32.6578
Ca2SmWO6,24.0948,22.6255,-1.4693
PIrIN2,29.7218,26.0231,-3.6987
Ce2NCl,16.6998,19.9959,3.2961
Si2RuRh,34.2587,25.3578,-8.901
NaIn2CuPb,24.8265,24.6605,-0.166
TbCu(PO4)2,7.8153,6.4453,-1.37
TaSbSe3,45.293,37.6101,-7.6829
Ac4SmPt5,71.9298,58.8038,-13.126
CaTa(PbO3)2,21.3504,21.7,0.3496
AcCd2CuPt2,47.9305,39.3206,-8.6099
SiRhF2,28.0222,18.0887,-9.9335
SrSi2IrW,36.9701,30.8439,-6.1263
CaSiIr2,34.1072,30.406,-3.7012
SiIrPt2S,59.5448,44.5094,-15.0354
GaRuPb2,29.0404,31.7363,2.6958
CuNi2Os,17.2706,18.5778,1.3072
ThAl3Cu,2.1574,7.6631,5.5058
NaVGe2Os,44.774,38.6065,-6.1675
CuNiOs,21.4953,22.8542,1.359
Ba2Ce2ErSc2,13.0695,15.6859,2.6164
Rb2TlIn,18.7302,19.0148,0.2845
CoBi2WO6,10.5097,13.707,3.1974
InCo(AuO3)2,10.5835,11.7186,1.135
Ce4Pr2Rh9,34.819,26.5392,-8.2798
Th2AlCu3,21.75,23.6213,1.8713
KSiMo,14.8775,13.4552,-1.4223
ReSnO2,62.3282,53.0077,-9.3205
CeZrPd4,12.1215,14.0872,1.9657
Th(Al3Cu2)2,11.3703,11.4513,0.081
MoAs2Pt,31.1868,26.192,-4.9948
TbPr2ErSe5,30.6275,26.1898,-4.4377
Be2TcAs,25.2483,24.5621,-0.6862
Ba2TaCd,14.6573,16.2448,1.5875
ThAl7Cu2,11.0514,11.7749,0.7234
MoAsPt2,51.037,39.5224,-11.5145
PmNbCr2O6,20.0703,17.4775,-2.5928
Hf2TlMo2,65.3993,52.7537,-12.6456
Os3Pb,45.3706,48.9679,3.5973
MoAsPt3,60.0046,43.5217,-16.4829
Ba2TaCd,14.5663,16.2448,1.6785
SbIrPt2,66.813,52.0974,-14.7156
NaTe3C,44.2328,37.0486,-7.1842
Mo2AsPt,32.6018,28.5295,-4.0723
TiSbW2,32.055,33.5583,1.5032
CdCoAs2,15.8309,14.7271,-1.1039
NaSb3C,46.0673,34.2572,-11.81
InGa2CuO6,14.4275,12.5807,-1.8468
CdCoAs2,15.8109,14.7271,-1.0838
NaTeWI2,31.5261,29.4495,-2.0767
K(SnPb5)2,44.5369,45.1487,0.6119
BaCdAu2,28.1128,29.7408,1.6279
KGeAs3,10.6491,10.9235,0.2744
SbIrPt,59.3807,48.7139,-10.6668
Ac3(Pm3Tm)2,36.7428,39.7633,3.0205
As3PSe,35.9169,31.1204,-4.7965
AsPSe2,38.7241,34.5172,-4.2069
AsPSe2,42.543,34.5172,-8.0258
BeSbBr,29.4983,27.3224,-2.1759
BaCdIr2,26.9145,29.6775,2.763
Gd2SnPd,26.4685,26.4146,-0.0539
Tb2CeTm4Sc,25.7735,27.8954,2.1219
BeSbBr2,25.0208,23.171,-1.8498
Ta3TlTe,43.2202,44.0469,0.8267
SbIr2Au,45.096,45.6124,0.5164
Li2CdInIr,17.8294,17.8912,0.0618
LuHfSc2,47.0508,38.9504,-8.1004
BaCdIr2,27.1658,29.6775,2.5117
In2NiIrC,30.6299,28.0697,-2.5602
NiSe,22.0989,20.9438,-1.1551
InMoPb,29.9512,31.7856,1.8343
InCuMo2,26.2125,22.3907,-3.8218
Sr3Zr5S12,39.7198,28.711,-11.0087
InCuPb,16.4285,20.003,3.5745
TeAs2Pt,38.3172,31.3509,-6.9662
BaCdOs,21.9038,23.102,1.1982
InCu3Mo,21.7028,16.8755,-4.8273
InCuPb,16.5091,20.003,3.4938
Th12Ir5Pb3,35.893,41.1368,5.2437
TeAsPt,47.6182,38.8429,-8.7753
ScTe(PbO3)2,34.0669,32.2202,-1.8467
LiSiTc2,55.5046,46.914,-8.5906
TeAsPt3,65.1264,47.9513,-17.1751