Formula,E_hull_DFT (eV/atom),E_hull_ML (eV/atom),Delta (ML - DFT)
Zr2Br,62.4652,56.299,-6.1662
Pr2ErSi2,3.5405,4.522,0.9815
AcHg(TeO3)2,9.8628,9.4018,-0.461
Ba2Ce(TcO4)3,15.9706,15.6058,-0.3648
Zr3GeC,72.4722,58.6041,-13.8681
PSeCl2,16.876,14.8619,-2.014
Ca3PrNi,9.8827,8.4308,-1.452
KSbIr,34.9804,32.0529,-2.9275
HfBiRu,71.2749,59.7961,-11.4787
Ba2PaTcO6,13.953,13.4818,-0.4712
RbLiBr2,10.8829,12.6404,1.7575
Sr2AgAu,23.518,23.9227,0.4047
YAgBi,33.3401,32.5107,-0.8295
AcTbPr3Sm,12.7368,15.3817,2.6449
Cd2TcRhO6,17.8678,15.5251,-2.3427
ZrPCl2,23.0882,20.5663,-2.5219
Ba2TcRhO6,5.9819,5.2346,-0.7473
Ca3SnTe4,24.2468,24.0932,-0.1537
CaPr2Ir,16.8538,13.3909,-3.4629
Ca3SnTe4,24.2356,24.0932,-0.1425
K2BiW,26.5343,28.7787,2.2444
Ce5(TaSe6)2,39.4405,35.0857,-4.3549
CuRePS2,49.5368,37.114,-12.4228
Cd2NiAs,23.3416,20.4699,-2.8717
Y4AgBi,17.8595,19.3456,1.486
ThScCu2,36.6908,33.9842,-2.7067
InW2,24.4833,32.6786,8.1953
ThCu2Ru,24.5793,27.3179,2.7386
NdHoNi,19.6116,22.6972,3.0856
Be2SnW2,17.3799,20.4957,3.1158
Y2Zr2Pd3,49.0906,42.2917,-6.799
Y(AgSn)2,32.0341,25.5956,-6.4385
NbSbPt3,91.9628,67.8623,-24.1005
CaPbBr2,26.7373,23.8846,-2.8527
Be2AsPb,20.1906,18.9691,-1.2215
NaRu3Pb,27.1737,27.5896,0.4159
TbTe(PbO3)2,10.9572,13.3293,2.3721
HfOsRh2,70.4182,54.2437,-16.1745
Be2AsPb,19.977,18.9691,-1.0079
AcTi(BiO3)2,17.3786,18.1341,0.7556
InCuTe,23.0684,23.8526,0.7842
CsTi2InO6,6.5118,5.6304,-0.8815
RbHoTi2O6,0.8662,0.0,-0.8662
Tl2TePbO6,20.134,21.0258,0.8918
Ti2HgPbO6,0.0,0.0,-0.0
UTl2TeO6,20.869,20.9029,0.0339
EuTmPb,36.899,39.0194,2.1204
LiLa2Br6,17.4477,14.9893,-2.4584
Sr2Pb3,33.1264,35.4584,2.332
ZnBiBr2,20.9947,22.8316,1.8369
NpTiCr2O6,13.6661,14.5485,0.8824
ErAl5Ru,8.1166,10.2048,2.0882
TcBr,26.2764,23.8978,-2.3787
Bi2SbW,49.1204,48.3308,-0.7896
ZnTcBr2,31.7901,27.7617,-4.0284
RbTi(GaO3)2,10.6432,10.102,-0.5412
Ac2TmHfO6,19.0774,19.2194,0.142
Zr3CdCu,65.56,55.1235,-10.4365
ZnTcBr2,31.5173,27.7617,-3.7556
Cd2FeTe,20.3323,21.6006,1.2683
CdFeTe2,25.8133,25.3991,-0.4142
ReSi2,23.17,21.6325,-1.5375
Ga3Pb5,36.0453,37.6044,1.5591
Ac2PmErSe5,45.6311,41.0358,-4.5952
Cd2FeTe,20.4374,21.6006,1.1631
ScSi2F,29.5313,24.6369,-4.8944
Pu2Ag2Pb,44.3018,43.407,-0.8949
TaIn2Co,42.1642,33.4932,-8.6709
CdReSb2,62.2921,51.0477,-11.2444
Ta2BeSe,27.2217,28.4995,1.2778
TiTl2BiO6,10.2944,11.6598,1.3654
Tb3In3Ru2,21.0808,23.0378,1.957
OsSeO2,17.1501,16.5285,-0.6216
Fe2(HPt)3,28.479,20.1358,-8.3433
OsPb2,44.0078,49.5167,5.5089
CdReSb,74.3115,56.6787,-17.6328
ZrGeC,32.3463,25.9094,-6.4369
AcTmTl2O6,18.2436,20.5548,2.3112
Si2Tc2Ir,43.2012,37.6043,-5.597
Cd2ReSb,60.6575,47.4122,-13.2452
Ag3(SnS3)2,39.3182,29.1278,-10.1904
HfVCr2O6,29.9007,23.0175,-6.8832
InCoW,23.8146,25.5712,1.7566
Sr2Ac3Pt4,57.99,47.4219,-10.5681
NaTaZn2,16.8154,18.4607,1.6453
Pm2VAgO6,19.5113,17.8746,-1.6367
ZrBi(PbO3)2,18.0744,19.6511,1.5767
Sm5Y2Th,21.916,25.109,3.1929
Tb2Sm(SiNi)2,19.1757,17.5081,-1.6677
SbPOs2,33.3795,33.9661,0.5866
PmPrHf,48.4088,39.5614,-8.8473
CaRhBr2,18.6874,15.7206,-2.9668
BaYB,61.7439,51.7395,-10.0045
CsSrAl2,9.9778,11.2767,1.2989
Hf2TcBi,108.4771,84.6758,-23.8012
Os2Pb,37.8885,47.1842,9.2957
NaLiAg4,24.9825,19.2299,-5.7526
MgGeAs3,10.9333,10.0075,-0.9258
TaSi2Se,29.2152,25.0634,-4.1518
VCr2PbO6,21.4259,18.6813,-2.7446
CaRuBr2,15.8738,14.0736,-1.8001
VCu2RhO6,18.9769,15.5584,-3.4185
MgNiRu,0.0,0.0,0.0
Zr6GeC,82.2243,67.5507,-14.6736
VCr2SnO6,37.0567,29.3307,-7.726
VZnCr2O6,22.5321,17.6362,-4.8959
Ba3Y2O6,18.1035,16.1251,-1.9784
Mn2VBiO6,74.2145,64.5901,-9.6244
La3Ag3Au,41.9448,31.7872,-10.1577
NaZnSb2,27.7172,23.1782,-4.539
EuBrO,11.6859,13.2868,1.6009
TlPOs2,35.5989,38.4205,2.8216
Ac6Pt2RhS,66.2041,58.6983,-7.5058
Be3SnW,20.9967,17.8521,-3.1446
BaYSi,42.7985,34.275,-8.5235
Ac8PtRh3S4,59.9046,52.1877,-7.7169
TaTlCd2,32.687,33.6455,0.9585
Tl2BiWO6,15.0987,16.7335,1.6349
Ta2CrPd2,35.6011,31.1055,-4.4956
CaMgZn2,6.2086,6.9709,0.7623
Na(CuRu)2,10.2832,12.4933,2.2101
Ac3Ag3Sn,39.7593,38.5651,-1.1942
BaYSi2,35.5896,27.2712,-8.3184
Pm2PrSi2,8.6213,9.768,1.1468
YNb(PbO3)2,24.425,24.579,0.1539
Ac2NdYO6,14.287,16.7069,2.42
CsScGe2,20.2888,16.364,-3.9249
Sn2SbN,31.2426,26.8608,-4.3818
ZnMoSe2,29.8597,25.9515,-3.9083
CePr2Au,15.3506,17.941,2.5904
ZnIr2Pt,44.4254,42.1865,-2.2388
Rb2CaMnCl6,16.5463,12.4286,-4.1176
CaTaBr2,16.2054,17.4177,1.2123
Zr2GaCu2,45.2111,38.027,-7.1841
Os3RuS,40.9598,40.3478,-0.612
Be2BiBr,13.6018,16.12,2.5182
Tm2HfNpAs4,38.2569,35.0967,-3.1602
SmZrGaCu,35.9809,32.455,-3.5259
PmPrNd2,17.3385,19.4345,2.096
Cs2Te,29.2943,29.2678,-0.0265
CaTcBr2,30.2307,26.8465,-3.3843
SrNpZn2O6,12.7898,11.1761,-1.6137
RbSc2Si,23.806,16.8224,-6.9837
BaYB2,46.8758,38.9649,-7.9109
SrPuZn2O6,24.6167,20.5074,-4.1093
RbAgP2,13.4159,8.8874,-4.5285
ZrBi2PbO6,24.8486,25.3051,0.4564
HoZrGaCu,36.7465,33.2264,-3.5201
BaY2Si,50.6754,41.6858,-8.9896
RbScSi,17.1145,14.755,-2.3595
CaTcBr2,29.8859,26.8465,-3.0395
RbScSi,26.0388,14.755,-11.2838
ZrGa2CuO,39.0926,31.944,-7.1486
RbScSi,25.2212,14.755,-10.4662
CaTeBr2,16.6598,17.4312,0.7714
K3LaF6,11.1156,11.2834,0.1678
AcSmPt10,81.3257,58.5774,-22.7483
ScFeSb,37.5268,33.3822,-4.1445
ZnSb(PbO3)2,21.8559,20.7147,-1.1412
InCoAu,26.2597,27.2404,0.9807
CrGaRu2,6.5181,10.5777,4.0596
RbCu(AsO3)2,4.8464,4.5839,-0.2625
ZnRh(PbO3)2,16.0456,14.913,-1.1326
Pb7Au5,50.3527,51.3622,1.0094
CsNi3C,23.9621,20.2829,-3.6792
K2PbF,17.1838,18.1265,0.9428
SnBiMo,34.2411,27.7692,-6.4719
ZrGaCuOs,40.3103,37.4517,-2.8587
ZrBi2PdO6,27.0682,25.8097,-1.2585
Th4Pd12Au,30.09,32.058,1.9679
Ac2DyZrO6,14.4504,17.029,2.5786
HfZrCd2O6,26.1942,22.5627,-3.6315
ZrPaTl2O6,24.9285,25.8129,0.8844
InTcC3,62.361,46.173,-16.188
CeZrCuRu,37.5157,35.0209,-2.4949
Rb4S12Br,40.799,28.7965,-12.0025
CaTiV2Os,64.0366,53.3306,-10.706
Ba3YV,49.1022,38.6473,-10.4549
GeIrW2,32.7274,37.3758,4.6484
Rb2SrLaI6,19.2916,18.1134,-1.1782
Ag6SeOF2,21.8616,17.0603,-4.8013
RbPrBi,16.902,18.4021,1.5001
Sr2ZrVO6,17.9028,15.38,-2.5228
BaYF5,18.7322,17.1982,-1.534
GdGa5Au,16.5845,17.8649,1.2804
PuV(PbO3)2,21.6467,22.3448,0.6981
CsGa,4.2132,6.9611,2.7478
CsGa2P,16.4329,15.2784,-1.1545
GdGaSi,17.3046,17.0504,-0.2542
Sm2VGaO6,16.4485,15.2808,-1.1677
KRb2SnSb2,17.7978,14.8575,-2.9403
Rb6Ag2AuO,9.6416,8.3742,-1.2674
BaY4,31.745,28.2889,-3.4561
Ba(ZnSn)3,9.4553,10.8268,1.3714
KBaLa3,34.2135,23.7444,-10.4691
Rb6CdHg2O,1.1118,1.5417,0.4298
Ba3Y,25.7376,21.2312,-4.5064
BaYSi4,28.5543,20.4015,-8.1528
KYbTe2,28.4157,29.4222,1.0065
Cs2In(TeO3)2,23.2916,19.979,-3.3126
FeBiRu2,39.7836,34.689,-5.0947
Gd2FeP,32.0568,29.8138,-2.243
SrBe2Si,19.151,13.1562,-5.9948
CsSrAl3,10.7779,11.2414,0.4635
Ta2RuPt,44.317,41.2968,-3.0203
Ca2TmPaO6,25.6145,26.0705,0.4561
Rb2MoSe,13.4095,12.9135,-0.496
CsAlCu2N,17.3891,14.2832,-3.1059
YBCl2,52.0548,42.0812,-9.9736
Y3TlBi,29.5146,30.8955,1.3809
Cs3CuP,20.6848,18.9081,-1.7767
NaInSi,16.765,15.584,-1.181
RbAg2C,33.0278,23.5183,-9.5095
BeCu2Tc,30.9913,25.6913,-5.3
Y3Sc(TlS2)4,57.0452,50.4455,-6.5996
Si2HgRu2,11.2952,8.7337,-2.5615
BeCu2Tc,30.9046,25.6913,-5.2134
Cs5(Hg4Sb)3,9.459,8.7541,-0.7049
RbBe,0.1305,0.1186,-0.0118
BeCu2Tc,30.9932,25.6913,-5.3019
BeCu2Tc,30.9361,25.6913,-5.2448
Cs2KMn,40.7885,34.1864,-6.6022
Ba3Zr(CuO4)2,6.9403,6.8585,-0.0817
Pa2Si2Pt,26.1333,25.3446,-0.7886
BaY,0.0,0.0,0.0
Te3AsOs,36.5045,35.2591,-1.2454
CaZrBr2,30.8893,28.9419,-1.9474
Np4CdPd12,29.8265,31.2792,1.4527
BaCePr2,4.4905,6.3512,1.8607
FePb(AuO3)2,12.9918,13.5156,0.5239
Si2IrPd2,15.4434,15.5497,0.1063
TeAs2Os,26.8074,28.0881,1.2807
GdMgCdBi,26.1448,27.9207,1.7759
Sr2GaGeO6,3.7332,4.8021,1.0688
CaZrCuS3,40.791,31.3267,-9.4643
TeAs2Os,26.4197,28.0881,1.6684
MgCo,-0.0,0.5957,0.5957
TeAs2Os,26.1275,28.0881,1.9606
Mg12Cd6Bi,10.4793,11.2255,0.7462
CsAlTc3,65.1805,53.6304,-11.5501
Cu2AgRu,16.1536,15.7287,-0.4249
TlRhPb,51.3668,47.4522,-3.9146
Pr3TmNi8,12.5967,11.3102,-1.2866
Al2TcBr,29.9854,25.9738,-4.0117
In(CuSb)2,21.2146,18.7344,-2.4802
Th3AgAu3,52.5532,53.6892,1.136
NpTl2IrO6,20.6537,22.7515,2.0978
LaPm2ErAs4,19.8369,20.1843,0.3474
KB3Cl,5.9797,6.0916,0.1119
CuAg2Ru,22.4036,19.3468,-3.0567
Zr2CuBi,64.4634,57.3554,-7.108
SrTlAg2,29.3332,26.9807,-2.3525
LiCa2BePb,19.1373,16.3391,-2.7981
Ag(BiSb)2,42.7755,37.5784,-5.1971
ZrCu2Bi,41.5738,38.5556,-3.0182
LiBePb,3.9672,19.7698,15.8026
ZrCuReBi,50.2963,48.2658,-2.0306
La2Co3Ge5,10.1803,9.3336,-0.8467
PmZrCuOs,42.8521,41.7521,-1.1001
Ca2BePb,23.2743,19.7794,-3.495
BaY3,35.3171,31.1939,-4.1232
CaBe2Pb,24.1795,19.9679,-4.2116
Li2BePb,14.4151,14.7805,0.3654
ScCo2BRh,18.386,16.2981,-2.0879
PbCl3,15.8848,16.8467,0.9619
BaY,52.8951,0.0,-52.8951
Pr2ScTi,0.5972,3.7571,3.1599
NaIrPb3,46.4637,46.2223,-0.2414
BaY3,35.299,31.1939,-4.1051
Cs2MgP2,8.98,10.5998,1.6199
Ag2BiSb2,41.644,34.7054,-6.9386
Rb2CuBi,16.6171,16.9517,0.3347
TlTe2Pt,56.1319,48.1552,-7.9767
RbCuSe,14.7886,14.746,-0.0426
ErTl2Cu,34.3802,35.9521,1.5719
Li2EuEr,14.8027,16.4863,1.6836
Tm3Al3Si2Ni,23.4819,21.7289,-1.753
CsNaCr2O6,2.2729,1.4346,-0.8383
Zr2CuPtN,57.8663,48.5289,-9.3374
Cd2SnBi2,31.2084,33.0714,1.863
Ho2ThHg6,13.0935,14.7636,1.6702
TlRhPb2,51.3125,50.083,-1.2295
YSc2Tl,18.5953,21.1965,2.6012
CsTbF5,0.0,0.0,0.0
SrTl(SO3)2,12.2013,10.2546,-1.9467
LiHfNb,74.404,57.6661,-16.738
LiBeIr,15.735,17.3044,1.5694
Dy2NiGe,21.4987,21.0156,-0.4831
CsZrC3,62.6945,46.6786,-16.0159
SrAc2TlO5,14.7251,15.5561,0.831
CaAgOs,26.6207,26.902,0.2813
LaNdGd2,33.7578,32.1348,-1.6229
SiTcIr,50.2068,44.8144,-5.3924
Tb2Ce(AlGa)2,14.0462,16.6368,2.5907
Ba(PuI3)2,24.4596,25.2289,0.7693
Be2TcW,38.7041,34.2917,-4.4124
AgHg(SO3)2,13.8641,12.3709,-1.4932
CaInBr,11.7765,12.9007,1.1241
CsZr(CuS2)2,44.6205,34.6076,-10.0128
Cs3Pm3SbO8,15.2642,15.7363,0.4721
Pu2Tl2Pd5,36.8362,38.5314,1.6952
SrTaGa2Pb,41.42,36.2715,-5.1485
CsOsI2,28.9235,29.5809,0.6574
RbTl(RuO3)2,13.8832,14.5235,0.6403
AcPmPt,58.9501,52.2075,-6.7426
Cs2AcI6,26.5841,27.6804,1.0963
CeY2Cu9,13.1135,12.141,-0.9725
GdGaSi2,16.6011,15.0755,-1.5256
SrCe(SiO3)2,2.8946,0.4387,-2.4559
AcTl(SiO3)2,5.184,6.8174,1.6333
ZrAlP,56.1786,40.9504,-15.2282
RbV(SiO3)2,7.1367,4.9678,-2.1689
TbY2Th,23.9045,29.4522,5.5477
AcTbSmPu,47.3072,49.9886,2.6814
RbErCuTe2,19.7848,21.1783,1.3935
InReGe3,28.739,24.8493,-3.8897
Rh2PbSe,49.8688,40.5102,-9.3586
AsIr2I,24.9839,28.6324,3.6484
La2AlHg,23.0752,17.089,-5.9863
TiCoSiIr,33.3879,30.4949,-2.893
Zn5(GeH)2,6.5094,7.3382,0.8288
CaMnTc3,79.4522,63.717,-15.7352
NbPdPb2,60.6562,57.4263,-3.2299
SrUIr4,45.2803,46.1076,0.8273
Ac3Pr2NdTe6,36.9923,36.7234,-0.2689
Zr2CoCuCl,55.9358,44.589,-11.3467
ZrTa2(TeSe2)2,49.14,44.2785,-4.8614
Ca2MnTc,46.6512,38.4719,-8.1793
Er2TiGaO6,11.6937,11.7836,0.0899
RbBa3Li,2.3492,2.1796,-0.1695
CaMnTc2,72.911,59.3524,-13.5586
CaMnTc2,72.9789,59.3524,-13.6265
SiTc2Ir,60.6691,53.4036,-7.2655
Ce4In12Pd,20.4857,21.5464,1.0607
Sm2CuSnSe5,39.2757,33.8822,-5.3936
V2AgHgO6,22.4249,16.4278,-5.9971
RbPt,34.9055,24.1012,-10.8043
CsHg3Pd,6.6594,8.0833,1.4238
CsGaSe2,28.0931,25.1371,-2.956
LiScRh2C,32.7956,23.5974,-9.1983
Mg2ScCrRh,20.25,15.1935,-5.0566
Pm2PrI6,19.0254,19.7152,0.6898
KHfS2,59.6766,43.3327,-16.3439
TaIn2GaSe,43.9978,36.8861,-7.1117
Pr(PuI3)2,29.6714,30.8199,1.1485
PdSe3,36.7322,30.928,-5.8042
LaAu,34.911,31.8795,-3.0315
Na(NiIr)2,19.0583,23.0724,4.0142
Lu3Pb,38.0829,40.2194,2.1365
CaIr2Br,33.4696,29.4357,-4.0339
TmZn2CrH8,5.0935,5.4133,0.3198
PrLuAl,10.9732,13.4753,2.5021
Ca2NiB2Rh5,30.0304,24.4972,-5.5332
YGaCu2,8.7907,6.7773,-2.0133
TbPr(NdTm)2,17.555,20.337,2.782
SrCrRePb2,41.5995,35.9931,-5.6064
ScNiIrRh,33.8732,24.7692,-9.1039
K6RbCd2O,9.5322,9.5397,0.0075
Sr6As2PCl,14.7725,13.4152,-1.3574
Na6Cd2AgO,21.4776,18.2214,-3.2562
K6Rb2PbO,10.5868,11.1031,0.5163
K2Rb6TlO,8.4542,8.383,-0.0712
K2Rb6NaO,5.4153,5.4894,0.0741
K6Na2TlO,16.9906,15.6566,-1.334
Hf3CdBi,102.2572,75.9995,-26.2577
ZrCu2W,37.7931,35.8838,-1.9093
EuNiSnWO6,29.784,25.2922,-4.4918
SmRhAu2,41.5654,39.6518,-1.9136
Sm3Cd2Au7,36.6113,37.8484,1.2371
Th2AlSi4Pt3,49.3433,38.5612,-10.7821
Zr4Ni3C5,59.2534,45.6542,-13.5992
ZrNiC3,58.6616,43.2546,-15.407
Sr7(TlAu)2,26.0334,27.2273,1.194
TaHg2Se,17.8099,19.5107,1.7008
ErPa3Ge4,33.0274,35.8234,2.796
NbAsSe3,71.7454,59.7779,-11.9675
SrCrAu3,35.2934,33.4501,-1.8433
RbLi2La,14.4146,10.6168,-3.7978
Sr(LiPd)3,6.2956,7.7232,1.4276
Be2ReSb,21.7048,21.3451,-0.3596
Ba2LiPt,24.0932,17.6854,-6.4079
BaAg5Au3,33.0835,29.2025,-3.881
BeReSb2,33.2033,29.8304,-3.3729
Tl5Ag3Pb,44.6309,42.3945,-2.2363
Ba6Ag2PdAu,9.4613,9.1413,-0.32
Cs2NbTe4,50.7024,46.0033,-4.699
Ti2Rh2Pb,24.3215,22.4225,-1.899
Ac5Pt2RhO,53.7726,48.6716,-5.101
NdSmAu4,39.0257,41.1268,2.1011
Ac5PtPb2O,51.0212,50.8736,-0.1476
BeRe4Sb,34.9431,36.1707,1.2276
YGaCu,26.3765,21.7313,-4.6451
Er2In8Cu,20.1214,21.3108,1.1894
Co(CuPb)2,33.8954,30.9794,-2.916
Cs2Tl6BiPd,39.9268,40.7378,0.811
Cs2Tl6HgPd,34.868,35.7689,0.9009
CaTmAgPt,38.4316,31.5874,-6.8443
TlSb2W,45.3037,42.028,-3.2758
BaCdCo,12.0349,10.8824,-1.1524
LaSiNi2,19.4477,15.3018,-4.1459
AcIn3Pt,42.1548,38.1797,-3.9752
Fe2CuOs,40.3456,33.4203,-6.9253
YbMnSe4,53.7984,44.5713,-9.2272
SmGa5Au7,30.3381,31.5263,1.1881
TlSbW2,44.2043,44.6213,0.417
Sr6As2PSe,19.456,19.5374,0.0814
YScCO,91.5958,76.5797,-15.0161
TlSbW,46.4625,44.5432,-1.9192
KBRu3,15.9308,16.8048,0.874
Ba2CdCo,9.1334,8.5498,-0.5836
InTeOs2,37.0779,39.2991,2.2212
Ce5BiC3,39.8682,33.7565,-6.1116
RbTaGe,3.0001,6.2258,3.2257
C7Br,58.9666,39.5383,-19.4283
Ba2AlGe,12.8916,10.7346,-2.157
Co3ClF,8.2277,8.3124,0.0847
BaCa2Te,12.3509,12.9967,0.6457
Ba3AlGe,10.7675,8.5262,-2.2414
SiNi2Mo,27.8558,24.5966,-3.2592
K2LiLaCl6,5.6166,5.3187,-0.2979
NdDyTm5Th2,32.9888,36.3171,3.3283
TlAsPt2,59.8975,47.9272,-11.9703
ZrTiCr2,34.4066,32.0262,-2.3804
Ba2GePPd6,8.8826,10.4707,1.5881
TlAs2Pt,40.1646,34.7659,-5.3987
Co2CuPb,36.2019,30.2387,-5.9632
TlAs3Pt,34.5636,29.1792,-5.3844
Co2Cu2Pb,36.4017,29.7576,-6.644
CaTbPmDy,21.0973,23.8667,2.7694
MgCdAgBi,26.9276,26.0606,-0.8669
Y7Pb,18.5873,20.0393,1.452
CoCuPb,43.249,36.9506,-6.2985
Np(AlZn)3,12.2822,14.3762,2.094
In5Rh,24.6548,23.8703,-0.7845
Pu4Pd12Pt,34.2689,34.3585,0.0896
CoCuPb2,41.8677,38.1676,-3.7002
Ac4In12Pd,29.7853,31.1318,1.3465
TaBe3Br,18.1246,15.0924,-3.0323
Ca2TeIr,30.9474,25.6635,-5.2839
Pu2CuGeS5,40.9652,33.6475,-7.3177
CaAgSb2,32.793,25.2518,-7.5412
AcPm2Sm6Er,24.9476,27.5714,2.6238
Pm2HoEr6Tm,24.1117,26.82,2.7083
Pm2HoErTm6,24.8039,27.5374,2.7335
RbN,0.0,0.0,0.0
Al2CoNi2,13.8887,12.1862,-1.7026
TaBe2Br,18.2362,17.1374,-1.0988
HgIrCl4,11.3231,11.7707,0.4476
Rb2CdAgI6,18.4667,18.0337,-0.4329
ZnIrOs,36.8149,35.212,-1.6029
K(PuSi)2,29.4567,28.5122,-0.9445
TaBeBr,20.6767,20.2967,-0.38
RePb3W,48.9015,50.3237,1.4222
Mn2Sn2Au,51.9858,43.8906,-8.0952
Ca2ReW,22.9505,26.1617,3.2112
Rb2CdIn6Sn,14.0242,14.7776,0.7534
Rb2Tl6CdPb,35.9937,36.342,0.3483
Ca2LaTe,25.5519,22.0169,-3.535
AcSm(CuSi)2,22.892,22.2972,-0.5949
Rb2Tl6CdSn,32.7627,33.1145,0.3518
CaReW2,30.963,35.7267,4.7637
Rb2Tl6CdBi,36.1391,36.6368,0.4977
Rb2BaPbI6,15.1125,16.5865,1.474
CaCr2Ag,23.2363,17.8736,-5.3627
Y3GaCu2,22.3476,17.8457,-4.5019
Ac2InPt9,78.931,58.6911,-20.24
MnSnAu2,53.6618,49.0123,-4.6494
K2Cr2Pt,22.1602,15.9587,-6.2015
ZrTaRu,50.3679,48.7002,-1.6676
SmMg2(ZnGe)2,9.6028,10.5445,0.9417
Sm2Ga3Cu4Si,13.6157,12.3926,-1.2232
Ho6TmIn2,26.4797,28.6939,2.2143
RbTiSb2,24.4714,20.9341,-3.5373
Rb2SmInI6,17.4092,18.5216,1.1124
K2CuTe,15.5386,16.2124,0.6738
TlReIr,45.3365,48.858,3.5215
TlRe2Ir,43.9682,48.4508,4.4826
Rb2Tl6BiSb,38.4016,37.8917,-0.51
Rb2SnAuI6,17.6409,18.6592,1.0183
Rb2SnPbI6,17.721,18.9946,1.2737
PrSm2Sb,21.9934,21.4313,-0.5621
Hf2Sn2Os,66.1837,52.2596,-13.9241
Tl2ReIr,47.2538,49.4984,2.2446
Rb2BaSnI6,11.9875,13.4412,1.4536
Ba7Mn,12.7167,10.0488,-2.6679
Tb5Y3Th,21.839,25.0842,3.2452
Al3ZnAg3,15.8254,13.2354,-2.59
Er3Al3Zn,10.3965,14.2861,3.8896
Ba2PmTaS6,32.4393,25.4101,-7.0292
Ba2PmPaS6,35.0611,28.8881,-6.173
RbEr(AuI3)2,25.5804,26.3888,0.8083
Ac2In8Pt,33.878,32.4182,-1.4598
Cs6RbHgAu2,22.5562,22.8589,0.3027
SrYGa3,12.3917,11.8064,-0.5853
Ca2UPaS6,47.1804,38.4353,-8.7451
RbPa(HgI3)2,16.9456,19.0259,2.0802
Bi6PtRhAu2,51.5615,48.91,-2.6514
LiAu,14.8449,16.7327,1.8878
PrAlS,13.4032,11.149,-2.2542
SrY3Ga,16.1015,15.043,-1.0585
Sr3CaBr,13.9589,11.9268,-2.032
BaAg(SnS3)2,36.4019,26.6477,-9.7543
AcAg(SnS3)2,42.4053,32.8177,-9.5876
Ac2AgSnS6,45.8696,37.0977,-8.772
LiTl,19.009,22.0045,2.9955
Sm4GaAu3,30.5525,32.5082,1.9558
In2TcSe,45.7113,39.8139,-5.8973
Ta2SeO2,16.5271,17.5872,1.0601
Ag2Sb2Au,36.803,30.4485,-6.3545
SmRhAu,39.9071,32.1648,-7.7423
SrYGa,10.5494,11.222,0.6726
GaTeF3,24.9275,22.4194,-2.5081
PrSmHo3,17.0188,21.5888,4.57
CaPaSn2,28.2436,30.8821,2.6385
Ac4InPt2,59.2339,53.7179,-5.516
SrYGa6,10.417,10.5478,0.1308
Sm4PtAu,33.6276,31.8483,-1.7793
Rb(Sb3Os)4,41.5644,35.0164,-6.548
Na2CdRu2,21.1038,20.238,-0.8659
Np4Rh12Au,53.7139,43.6111,-10.1028
SbPb,45.0024,41.8869,-3.1155
Sn(BiSe)2,41.4947,38.7821,-2.7126
Pd2RuAu,20.2314,24.6773,4.4459
Mn2Al,44.7046,36.0691,-8.6355
Ba2Tl6CdRh,34.3341,34.265,-0.0691
Tc2AsRu,55.5592,46.6694,-8.8898
Sn2BiSe,32.3264,31.7774,-0.549
La6In2OsRh,43.6817,32.4603,-11.2213
CaSmCuSi,17.6156,15.9028,-1.7129
Sr4LiY3S8,34.0388,25.3608,-8.678
U4IrRh12,52.9627,43.3262,-9.6365
Ac2YPu,53.9321,55.9144,1.9823
Tl5InAg3,40.9957,38.6825,-2.3132
AgPb2W,77.7232,65.1317,-12.5915
TiAlSb2,20.7093,17.804,-2.9052
TbY2Th5,41.3611,45.1946,3.8335
LiCaTmPt,30.9077,26.1579,-4.7499
ScVNi,39.7714,34.0898,-5.6816
Tb7SmMg2,22.2087,23.7337,1.5251
Ti3FePb,17.392,17.2864,-0.1056
SrW3Br,36.9964,32.9016,-4.0949
NiMoAs2,27.7907,24.8776,-2.9132
PmSmCuSi,18.3929,18.8286,0.4357
Te2PdRu,29.6295,31.1125,1.4831
BaZrN2,15.8441,16.0297,0.1856
ZrTiCuRu,33.9109,30.2183,-3.6926
NaCaS3,39.6597,29.0281,-10.6316
Y2AgHg2,22.4761,16.9582,-5.5178
CuSi4Se,20.3662,14.0159,-6.3502
U4PtRh12,55.6568,43.8132,-11.8435
La6IrRuAu2,41.534,31.4975,-10.0366
Np4PdRh12,51.9662,41.7654,-10.2008
CoNiAs4,22.0274,13.5323,-8.4951
YBeW,34.5975,23.8873,-10.7102
PmU(AgS3)2,43.3057,34.2838,-9.0219
PmZrCu4,24.9852,23.8063,-1.1789
MnAl2Au,38.1369,33.725,-4.4119
Pb3Au2,46.9334,49.0588,2.1255
Sr2YMg2,8.7024,9.0469,0.3445
PrH2Br3,2.0943,4.7042,2.6099
Ac6PrIn2,46.7214,48.7007,1.9793
SmCu2Si,8.9621,10.0945,1.1325
InCoSn,6.6672,10.5034,3.8363
CrSn2Ru,16.7858,18.6562,1.8704
Cd4RuPb,24.6564,26.1312,1.4748
In2SbAu6,40.8686,40.5438,-0.3248
ScVSn2,46.1061,38.2619,-7.8443
BeZn3Si,17.1201,14.0137,-3.1064
YBeW2,28.1659,23.8264,-4.3395
Ba2Zr2N,33.9194,28.7352,-5.1842
Cd4SbRu,23.38,23.106,-0.2739
Y2BeAg,18.3071,15.3337,-2.9734
Rb2LiPbCl6,8.4547,8.3645,-0.0902
Zr3In3Cu2Tc,50.9785,44.6386,-6.3399
AsIrRu2,28.3165,25.1454,-3.1711
GdTiSi3,6.8639,5.7033,-1.1606
Ca2Ni2Sb,15.1288,11.8169,-3.3119
As2IrRu,25.029,22.9023,-2.1267
TaHgRu,17.7889,21.339,3.5501
YBeW2,35.9651,23.8264,-12.1387
K(Tl4Pd)2,41.2877,42.0833,0.7956
SrCe2PmN4,2.3331,7.7646,5.4315
SrCe2PrN4,2.3165,5.5887,3.2722
BaLiIr2,24.0916,25.7774,1.6858
Sm8Al2Au,22.7822,24.4027,1.6205
Ac2AgRhO5,15.2688,15.1828,-0.0859
NiAs2Os,26.8852,25.1699,-1.7153
Ca2IrW,31.0072,27.5494,-3.4578
LiPrBi2,25.6495,27.4604,1.8109
Ni2BiPb,25.9549,29.6934,3.7385
TeRh2Cl,36.2678,28.5706,-7.6972
Rb2Y2USe6,33.8058,29.3155,-4.4903
BaAlZn2,13.8601,10.8753,-2.9848
Y2BeAg,18.1825,15.3337,-2.8488
PrNd3O,17.1692,16.4423,-0.7269
NiAs2Os,26.7699,25.1699,-1.6
TlRh2Cl,38.515,31.3901,-7.1248
TlRh2Cl,38.8061,31.3901,-7.416
Ba(AlZn)2,9.3759,8.3491,-1.0268
Ba2AlZn,11.8478,8.7997,-3.0481
Zr2VCu2,61.0068,50.9048,-10.1019
Sc(GePd)2,15.5175,14.0764,-1.4411
CdCoOs,23.1626,26.7799,3.6173
ErZn2Rh,23.0182,20.874,-2.1442
Se5Cl,41.4815,33.8927,-7.5888
Sm3AuI7,24.579,26.6155,2.0364
Ba2AlZn3,8.2691,7.1537,-1.1155
YTlHg4,16.6635,14.7738,-1.8898
Pm2MnCrS6,41.8921,31.8937,-9.9985
ZrAl2Sb,37.1705,31.6094,-5.5612
Cs2UWS6,42.4565,33.8726,-8.5839
LuZrInCu,39.441,37.3457,-2.0953
SrOsBr2,17.7842,18.0437,0.2595
YTa3B,65.3456,58.0338,-7.3118
Ba2PtRhO5,8.5842,6.036,-2.5482
Ac4Cu2Pt,51.3796,48.4811,-2.8984
Ac3(SbPt)4,65.487,52.297,-13.1901
AcGa(CuPt2)2,55.8173,42.707,-13.1103
Y2CoPb,40.6633,37.1844,-3.4789
K2CrOs,20.1731,19.7107,-0.4624
SrNbBi2O,52.8647,48.4327,-4.432
PaIn(PbS3)2,52.591,43.5057,-9.0852
Tl6In2Sn,40.6109,41.6319,1.021
Nb4Si2N,84.907,69.449,-15.458
RbGa(SnS3)2,34.5817,25.9055,-8.6762
PrInAs,2.6411,6.3201,3.6789
BeTl2Pb,36.3749,39.0912,2.7164
Rb3Y(USe3)2,35.8004,32.3129,-3.4875
In2HgGeS6,34.737,26.9058,-7.8312
SrZr2CuO,44.6279,36.7895,-7.8385