Formula,E_hull_DFT (eV/atom),E_hull_ML (eV/atom),Delta (ML - DFT)
Na7(CdIn)2,22.6876,19.3561,-3.3315
La4YEr15,33.0851,30.715,-2.3701
TbNd(SmHg2)2,9.0594,11.1601,2.1007
SrGeS3,23.6579,18.1335,-5.5244
TbPm2NdHg4,8.9917,11.0638,2.0721
NdZrAs2Rh5,42.5948,33.3848,-9.21
Ba2YCu3SO6,13.7748,12.0313,-1.7435
Nb3CuI,92.8411,77.0419,-15.7993
Cs2CdPt2,49.1378,38.8453,-10.2925
GaS3Br,37.8417,28.8489,-8.9928
PrGaSn2,13.6458,14.316,0.6702
La4SiRu,42.5041,28.8696,-13.6346
Ba2RePb,35.6467,30.2063,-5.4404
Rb2Mn2Br7,20.7415,17.1367,-3.6048
YScPBr2,26.8496,22.0709,-4.7788
Na4SnPb,26.1969,23.5157,-2.6811
GaIrS3,38.686,31.3297,-7.3563
EuThPb,49.0337,51.4962,2.4625
SbO,0.0,0.0,0.0
Cd2SbSe,32.9458,28.5051,-4.4406
Rb2Mn2I7,28.7305,25.4109,-3.3196
Zn4SiW,14.8508,15.396,0.5452
ZnMoCl4,13.2666,8.313,-4.9537
BeC,12.3629,12.1957,-0.1672
Mn2Cu2Br7,28.4566,23.3572,-5.0994
Th4FeTe2P,51.0898,51.0411,-0.0487
HoBiS3,44.1297,37.199,-6.9308
La(Y2Er)4,21.7257,21.6505,-0.0752
GaPbAu,36.0589,37.6677,1.6088
Mn2Ni2Ir7,65.4377,61.1052,-4.3324
CaAlSn,2.234,6.8193,4.5853
TmTlV2O8,27.2516,23.7595,-3.4921
ZrCdMo2,37.1259,35.8969,-1.229
ZrCdMo,44.4222,41.597,-2.8252
PCl2,3.177,4.4989,1.322
Cd2In2Pb,23.9863,25.4463,1.4601
Al2CdAg,11.8387,12.2613,0.4226
GaPbAu,32.5781,37.6677,5.0896
RbNiIr2,25.4205,27.4938,2.0733
NbSnN2,49.5087,43.381,-6.1277
ZrCd2Mo,38.1524,35.9431,-2.2093
PrGeAs2,12.7734,12.3167,-0.4567
SiPt4W,69.0144,50.5206,-18.4939
SrHfSi3,50.9204,33.9121,-17.0084
RbPuTe,31.9885,33.0849,1.0964
Cr2IrWN,33.6594,31.9266,-1.7328
Ca(FeN)2,13.7205,12.2579,-1.4627
La(CdHg)2,17.5663,15.191,-2.3753
SrNdI2,20.11,21.4516,1.3416
ReIrW2N,82.6889,78.3799,-4.309
InFeBi2,31.288,30.9996,-0.2884
CePr2Pt,26.0416,21.2971,-4.7444
Sr2NdI,18.1773,19.741,1.5637
Y3TcC,74.4228,59.7717,-14.6511
BaNaSb,22.4485,18.5584,-3.8901
FeSb,30.2905,27.1043,-3.1862
PmNd(SmHg2)2,11.8149,14.1113,2.2964
CaPm6Sm3Y2,23.0706,23.3479,0.2774
CaSb2,29.2745,21.4954,-7.7791
PrTl2Ge,26.7132,28.5437,1.8305
Tb2PrGe,14.1634,17.416,3.2526
Pr3S3F,21.5673,16.7275,-4.8398
Pr(Tl3S4)2,49.9572,41.6911,-8.2661
Sc6CrSb2,18.9741,16.0569,-2.9172
SiTeAs2,30.166,26.9397,-3.2263
BaNaSb,19.0797,18.5584,-0.5212
La3Y6Er,27.0072,22.9912,-4.016
SrScW2,33.5843,28.9807,-4.6036
SrBiAs2,22.8038,21.6985,-1.1053
Y4Tm7In,25.0142,26.1053,1.0911
Sm(TmCd)2,21.3407,24.7318,3.3911
PrAgS2,17.9059,13.8104,-4.0955
Sr4LiRh,18.0055,16.0754,-1.9301
Ac3ThAs4,36.0209,38.5377,2.5168
Sr4Ag2N,16.8693,15.3042,-1.565
Y2TlHg2,26.5867,22.7745,-3.8122
BaSc4P,19.0364,15.7384,-3.298
Ba(NaSb)2,24.1699,19.777,-4.3929
AsPdRh3,36.5625,27.5788,-8.9837
ZrCrMo,41.5754,38.0116,-3.5638
LaHfS3,64.065,44.7208,-19.3441
NaPaBi4,47.0427,48.5211,1.4784
Ce2PaZn,31.3887,34.3592,2.9705
Th4SiTc,53.8008,53.6936,-0.1073
CrFe2Ni,37.2112,27.1055,-10.1056
CrFe4Ni,24.8524,18.3744,-6.478
CrFeNi4,27.5235,23.1399,-4.3836
Cr(FeNi)2,32.818,24.3644,-8.4536
Rb3Ac(YS3)2,34.7122,27.8568,-6.8554
KSiAu3,30.8509,30.2183,-0.6326
POsN,27.2209,24.5696,-2.6513
TlIrW2,43.3402,48.0836,4.7434
NiOsN2,42.0936,34.3103,-7.7833
ScReAg,55.8707,42.2817,-13.589
TaCu2,0.0,5.669,5.669
KW2S,31.0333,29.53,-1.5032
Pa4SiTc,53.3359,53.9601,0.6242
Na2AlAgN,17.4265,13.8787,-3.5479
BIrRu2,23.3824,23.869,0.4866
In2ReAg,28.2636,28.3407,0.077
NiOsN2,42.7326,34.3103,-8.4222
Cd(AgPb)2,34.92,33.1506,-1.7694
Sc2ReAg,42.1652,32.799,-9.3661
Sr2SeCl2,27.8715,24.66,-3.2115
Al3NiOs,14.2141,14.8458,0.6316
InRe2Ag,33.7954,34.5412,0.7457
TaSb2N,26.3903,24.4157,-1.9746
Y2Hf(TlS3)2,66.0009,54.1895,-11.8115
ScReAg2,49.1103,37.5397,-11.5707
AlNi6Os,0.0,0.0,0.0
LaHfSc3,42.6585,31.4913,-11.1672
V2ZnGaO8,32.7141,25.5311,-7.1831
Na3SnBi2Pb3,40.0179,39.152,-0.8659
NaLu2N,22.4434,23.3818,0.9384
NaScBr4,12.9391,12.2311,-0.708
ZrCrMo2,34.8153,32.8965,-1.9188
TbPrS3,29.9852,22.6671,-7.3181
Cu(NiGe)2,10.207,7.1741,-3.0328
Sc2InRe,40.7058,32.4193,-8.2865
TaGa,28.3316,24.8361,-3.4956
NaTlSb4,42.4419,34.6461,-7.7958
YTlSiS4,46.2913,37.0663,-9.225
NdPu3Ir8,48.4589,52.2578,3.7989
NaScIn4,20.4892,18.4594,-2.0298
ScInRe2,48.4505,42.0912,-6.3593
SmMg3,5.6259,7.6598,2.034
CrSbMo2,21.3273,21.1406,-0.1867
Tb4IrRh3,36.3176,33.2031,-3.1146
Cr6NiSb2,21.6828,18.1216,-3.5612
ScInRe2,48.231,42.0912,-6.1398
TbPmSiIr,26.9018,28.5134,1.6116
FePRu,13.6593,14.3807,0.7214
NaPmAgAu,31.6537,29.9323,-1.7214
In2SbRh,33.3729,29.2601,-4.1128
YHgN2,32.8412,28.2403,-4.6009
BeTl2Ni,27.585,28.9758,1.3908
Be2Al2Sb,25.4637,18.1126,-7.3511
Ag(AuI)2,32.406,31.6556,-0.7503
PmAlGa2Ni5,8.3132,9.958,1.6448
La5YEr4,39.2201,31.398,-7.8221
BeAl2Sb,24.4659,18.2981,-6.1677
Ca(VSb)2,65.8575,50.7822,-15.0753
Y5(ErSc)2,9.5727,12.4284,2.8557
NiRuC,23.2272,23.6402,0.413
ZrV3Ru,102.0175,80.9852,-21.0323
PaV2AgO8,28.5257,24.2902,-4.2356
NdSm2Tl3,37.4704,39.1957,1.7253
Li(SbP)2,19.7635,14.015,-5.7486
BeAl2Sb,24.4587,18.2981,-6.1606
Cs3HgSb,17.784,16.901,-0.8829
TbNd2SmHg4,9.0033,11.0933,2.09
MnSbP2,38.4933,30.7797,-7.7137
Ho12Tl5C2,37.5192,36.9448,-0.5744
Be(CuNi)2,4.2943,5.2474,0.9531
MnSb3P,48.7925,36.8241,-11.9684
Fe2SbP2,36.0995,28.8606,-7.2389
Sc3AgIr,17.616,13.1029,-4.5131
MgSb4W,37.8092,31.0782,-6.731
Li4MnSb,24.4171,19.5374,-4.8798
BeTcP2,26.5066,22.3925,-4.1141
Na3(Te2Au)2,37.0317,34.3123,-2.7195
Ta5Ga3,68.8664,54.0618,-14.8046
MnSb2P,48.6812,37.7834,-10.8978
Li4FeSb,19.1677,15.9848,-3.1829
BeTcP3,22.6301,18.7814,-3.8487
Sr2TaC,40.9069,30.6176,-10.2893
LiSbP,19.3947,13.3127,-6.082
Be2Ag2Sb,19.8904,15.4377,-4.4526
Cs2BeN,36.2612,31.2401,-5.0211
Pa2Ag2O7,16.4359,18.3844,1.9485
Pr6NdSc,0.1546,1.8339,1.6793
NaSmAu4,39.3118,39.6969,0.3851
NaTlPb,39.9816,39.6585,-0.3231
LaSc2I,21.2647,19.3232,-1.9414
NaSrInBr6,10.512,10.7204,0.2084
Li(NbCu)2,53.9047,46.9471,-6.9577
NbCu2P,38.3092,34.0203,-4.2889
FeCuP2,18.4613,14.8084,-3.6529
TaOsAu2,39.0303,43.443,4.4127
Na3In8,21.0638,20.2708,-0.7931
Tl2GePbBr6,22.3715,22.2607,-0.1108
NaSmHg4,7.7626,7.7998,0.0371
YTa2Os,50.4748,47.663,-2.8117
Sr2AgRu,19.2375,18.1206,-1.1169
SiP2RuN,22.7388,20.9335,-1.8053
SrAgRu2,20.5985,20.2209,-0.3776
Sn2GeTe4,31.3188,30.2935,-1.0253
Tb2TlRh,32.3472,32.9757,0.6285
Sc2SiAu2,31.7734,30.4972,-1.2762
Pr(ErSe2)3,29.5526,26.5747,-2.978
Sr2TlRu,23.7528,25.3197,1.5669
Zr4AlPt,81.0695,65.3585,-15.711
TlCrIr,36.3113,36.9553,0.6439
Ac(La2Sm)2,41.5002,34.0476,-7.4526
Se3IN,36.7516,29.7931,-6.9585
YSb2Pd,32.4666,26.4739,-5.9926
ThPt12,87.3921,62.4619,-24.9301
NaHoTe4,32.1508,31.9541,-0.1967
Zr2AsOs,61.7924,55.2656,-6.5267
TmH4Ir,7.0774,11.5965,4.5191
Ag2(H2Rh)3,19.2661,14.5948,-4.6712
Ca4Sm3YSe8,49.9554,40.473,-9.4825
PrGe2Au3,25.9561,27.0836,1.1275
Tl2TeI,41.4325,41.2514,-0.1811
NaCu4Ag,13.8756,12.6985,-1.1771
NaBi2PbI,42.1406,41.3975,-0.7432
UCd2Rh5,43.6378,35.8217,-7.8162
Be17FeW,10.563,8.115,-2.448
NaSr4Tl,21.4159,21.752,0.336
SiPOs2CN,35.1778,30.6336,-4.5442
Ca(H2Ru)4,5.43,6.7145,1.2845
YbMgAu,21.872,25.6421,3.7701
TlSbS3,49.0671,37.8088,-11.2582
PaBe17Fe,9.9064,8.3735,-1.5329
Ba2I2Cl,8.3621,9.5396,1.1775
Y4MgMn,28.1074,23.864,-4.2434
Ce2Pm3YAs6,15.0288,17.0793,2.0505
Zr4SiW,75.0637,62.9515,-12.1123
NiPtAu,42.763,38.0391,-4.7239
Sm2Tm2Sn2C,29.75,28.6664,-1.0836
CaAlSn2,8.5167,10.7504,2.2336
Ti2CuP,9.2318,9.9251,0.6933
Si2Sn2O7,18.377,11.4603,-6.9166
NaPaTe4,38.1885,38.1259,-0.0625
FeOsC2N,52.579,40.6283,-11.9507
NpU2,69.4407,73.2553,3.8145
SiSn,0.0,0.9492,0.9492
TlPW,108.46,92.0828,-16.3772
TiCdSn2Ge,22.9652,19.0619,-3.9033
La2Y6Er3Th,28.417,26.9477,-1.4694
Ce(ErTl)2,33.2347,36.1051,2.8704
Ca2RhWN,26.3269,20.3242,-6.0027
GaAgSn,16.9434,16.69,-0.2534
NaPuAgBr5,17.4686,17.6905,0.2219
GaSn2Hg,12.4855,14.0215,1.5359
GaAgSn,20.2849,16.69,-3.5949
Li3IBr,13.9165,13.0091,-0.9074
NaVSe4,52.5383,42.64,-9.8982
FeTePt,44.639,36.8086,-7.8305
BeZnAu4,37.0621,35.0375,-2.0246
Pr2YHg,5.689,5.6796,-0.0094
AlPdI,13.8924,13.666,-0.2264
TaBe3N,32.9469,26.5982,-6.3487
AlCd,5.4147,9.5901,4.1754
KRb8Na5,10.7961,8.4305,-2.3657
ZrCd2Pb,47.2834,44.3629,-2.9205
Sr2VZn,39.1582,32.9994,-6.1588
ZrCdPb,57.1034,52.7401,-4.3633
ScSi2Br,24.2817,21.0262,-3.2555
Ca3IrC4,41.1566,28.4622,-12.6944
RbSiP2S,26.5644,20.0519,-6.5125
InGeTe,13.4924,14.97,1.4775
BaNaLa2Pt,43.2126,29.8506,-13.362
La4YEr4,37.765,31.3949,-6.3701
TmPaSb2C,42.4675,37.7696,-4.6979
LiLaPr2,10.7181,8.5262,-2.1919
Ge2RuSe,21.2536,20.6825,-0.5711
Mg2SiOsN,29.6002,23.8879,-5.7124
BaLi2W,14.6999,14.2594,-0.4405
IrPtRh4,47.4754,37.2396,-10.2357
BeCuN,26.394,22.9533,-3.4407
CaMn4Be,72.6304,53.8817,-18.7488
SrCrTe2,28.5747,26.0977,-2.477
TaCS2N,53.55,42.9885,-10.5615
GaBiSe,27.258,26.7417,-0.5163
Y4MgZr,27.7868,24.8286,-2.9582
V4Pt2Pb,107.8031,82.8422,-24.9608
Y4MgW,24.8872,19.0908,-5.7964
ZrPRu4,27.9607,27.8691,-0.0916
PaBe17Al,8.9173,7.5997,-1.3175
NaMnAsSe2,58.7438,51.7505,-6.9932
Re(TcN)2,88.232,76.5359,-11.6961
Mn2Ru2Au,48.1887,42.3563,-5.8324
SnN,10.6087,12.2133,1.6046
LiInW2,26.273,28.003,1.73
CrOsW2N,83.5117,67.9346,-15.5771
SrHf3Mo,92.5831,67.1212,-25.4619
Pa3AsSe2,52.2444,53.7419,1.4975
FeTePt,44.8058,36.8086,-7.9972
TcPSeN2,42.7701,34.2188,-8.5513
Ta5Ga3,68.7025,54.0618,-14.6407
NaErIn4,21.9962,22.5008,0.5046
SbRu2Pt,36.1635,30.8745,-5.289
NaAl2CuBi,20.2033,18.7963,-1.407
BaLiW2,22.6196,24.3464,1.7268
TlSb2Se,43.6879,36.8634,-6.8245
CdSb2P,24.9266,21.0962,-3.8304
CrGeW2N,26.1339,27.1197,0.9858
U3Ga5,24.5225,27.6205,3.098
BeHgAu,15.8764,17.096,1.2196
CaIn2,11.6271,14.2329,2.6057
ReTeSe2,44.6963,40.9613,-3.735
Er8ZnNi2,22.9539,24.4694,1.5156
NiPb2Se,40.1761,39.3144,-0.8617
Gd2Fe3Ru,13.6798,11.946,-1.7338
InPPb,25.742,27.5423,1.8003
Na2LiTlBr,29.6142,26.5841,-3.03
AlZnTe2,23.6432,24.3636,0.7204
NaTbCl4,9.2941,10.8753,1.5811
AlZn2Te,13.0772,14.5382,1.461
GeAsAu,17.8626,20.8542,2.9916
AlTeBr,18.9691,19.0654,0.0962
P3AuN,26.8242,23.3764,-3.4478
CdAs2Ru,19.1965,16.025,-3.1715
Hf2Co2Cu,73.5257,53.0896,-20.4361
In4GeSb2Te,27.4331,25.3175,-2.1156
Ce2Cr2O7,0.0,0.0,0.0
HfNb4In,121.6762,98.2565,-23.4197
La2YEr7,32.3032,30.6478,-1.6554
Ce(PuBi)2,46.6419,49.8107,3.1688
Dy2Cr2O7,-0.0,-0.0,0.0
ScSbSe,17.0136,14.8293,-2.1843
La12Y3Er,43.1971,30.4546,-12.7425
Al2HgTe,12.1439,12.6213,0.4774
ZrAlAg4,37.9048,30.5773,-7.3275
Ge(BMo)2,7.8959,8.2194,0.3235
BaPPt,35.4274,26.2494,-9.178
AlHgTe2,21.8662,21.4807,-0.3855
YAlSe,35.4493,27.8936,-7.5557
SmZrNi4,24.3592,24.0493,-0.31
Th2Co2Cu,42.5258,40.5962,-1.9296
CdCo2Cu,21.5705,18.8067,-2.7638
SmHo4Rh5,37.4978,32.4133,-5.0845
DyFeSi,14.9948,14.0019,-0.9929
NdCoAs,0.0,5.9252,5.9252
VS3I,59.108,45.6252,-13.4827
Na2WC,34.0475,29.7234,-4.324
PrSnBi,25.1861,25.229,0.0428
ScO2F,58.9193,52.1543,-6.765
CoTcO2,18.3433,17.3624,-0.9809
Na3WC,37.9412,29.5626,-8.3786
Zr2TaCo2,57.1004,45.5748,-11.5256
Hf3(AgHg)2,70.4535,50.7974,-19.6562
Cu2Pb2O7,10.0607,9.3295,-0.7313
AlMo3Rh,33.0134,24.3241,-8.6894
ZnGa2Sn2Pd5,14.9485,14.4063,-0.5422
ZnSi2,14.221,10.1935,-4.0275
MnFe3Sb,43.8222,34.006,-9.8161
AlMoRh,28.5734,23.2332,-5.3402
NiP2PtS,36.9704,30.2092,-6.7612
NaCd7Au2,25.3394,25.3562,0.0169
AlMoRh,28.8248,23.2332,-5.5917
Ho2Er,24.1265,28.5443,4.4177
TaNb4Pd,93.9923,81.8252,-12.1671
LiTiIn2,9.0051,11.3828,2.3777
FeNiSe,47.905,36.543,-11.362
As2PbW,30.1512,30.5053,0.3541
NaPmIn4,21.194,21.6978,0.5038
Er2Co2Au,24.0231,25.6315,1.6085
TaOsAu2,43.3137,43.443,0.1294
Er2Au2O7,6.8324,8.7205,1.8881
GaNiPPtS,40.4222,30.9199,-9.5023
LiCaLaEu,21.6125,18.5782,-3.0343
Ba(NdI4)2,19.793,20.5174,0.7243
ZrCrRe2,46.858,45.5151,-1.3428
ScSiAu3,46.7598,42.9969,-3.7629
NaHfAl,52.1812,40.631,-11.5502
TaNb4Ir,97.5697,84.8139,-12.7558
Sc2SiAu,35.0581,32.6484,-2.4097
Pr2NiPd,10.6387,10.1052,-0.5334
Ta2OsAu,40.4924,45.2176,4.7252
Sc2Si2Au,37.8002,33.1615,-4.6387
Ce(GaCo)2,10.4087,12.7298,2.3211
CsRbClO2,5.2253,6.3413,1.116
Ta2OsAu,40.7637,45.2176,4.454
La2BiSb2,43.5238,34.6389,-8.8849
HfP2SO,49.2328,37.9576,-11.2752
Zr(ReW)2,39.5498,44.7213,5.1716
Nd2PdRh,21.9744,24.7938,2.8194
Ti2PdS,13.8145,14.3224,0.5079
Cs2PNCl6,13.6232,12.7465,-0.8767
TaOsAu2,43.7208,43.443,-0.2777
Dy6Y3Er,18.6461,21.8598,3.2137
CaTlCd17,20.0604,20.6184,0.558
CaScCd17,18.3462,18.3734,0.0272
CaSmCd17,18.6179,19.298,0.6802
CaThCd17,20.8073,21.5504,0.7432
CaLaNi17,9.7566,9.387,-0.3696
CaCeAu17,43.6696,44.7313,1.0618
Tm2Fe17C3,10.956,9.5939,-1.3621
Ca2In6CuIr,21.5987,19.4753,-2.1234
NpCuTeS,36.5776,34.789,-1.7885
K(Tl2In)6,39.0356,39.3615,0.3259
Tb(CePt)2,43.5364,35.7011,-7.8353
Dy(ErIn4)3,21.7102,22.9967,1.2865
ZrCu2As,30.4683,28.0801,-2.3882
Na3ZrAs,37.8224,30.6315,-7.1909
Fe2Ir2O7,6.6402,6.1241,-0.5161
K3CrI6,14.0523,14.4969,0.4446
Sc3BiSO,61.1803,55.2244,-5.9559
LiY3Tl2,19.022,22.0625,3.0405
CaAcNdY,32.0488,30.7145,-1.3343
ZrAlOs4,44.7613,45.2918,0.5305
NaCuAgMo2,30.0293,22.4248,-7.6045
ZrTa4Al,41.5663,41.2241,-0.3422
ZrB2Ru,28.5579,28.1707,-0.3872
Sr3Al5Cl12,0.0,0.0,-0.0
NaHoCl4,9.5772,11.1506,1.5734
Cs(Cu2Ni)2,10.6273,11.4625,0.8352
Nd3(HoAg)2,27.6458,27.11,-0.5357
SmY2Er2Sc,17.3502,18.6363,1.286
SiOsCN,42.6604,30.7088,-11.9517
K3BF6,1.474,3.3266,1.8526
ReW2,26.278,38.4935,12.2155
K2CoAg,16.1339,13.9191,-2.2147
V2CrGa,68.6167,55.1979,-13.4188
HfCo,49.5913,35.9141,-13.6772
YScCuSi,40.4969,32.8818,-7.6151
CeY2PuAs4,19.2145,21.6237,2.4092
PtSeBr2,38.7994,30.4129,-8.3865
ErTmAgRh,34.4709,30.728,-3.7429
ErPuInCu,31.9087,34.4131,2.5044
Cs2RbSn3O8,47.6916,38.345,-9.3466
LiNiAgHg,11.6762,10.1552,-1.521
ZrCrRu,41.1988,37.1565,-4.0422
Ce(SmTh)2,41.4321,45.4345,4.0024
Al2GeSbN,20.8767,16.6388,-4.2379
CsBeP2,5.2212,5.872,0.6508
LaPa4Rh15,52.0685,40.5463,-11.5222
ReSi2AgN,72.9468,60.5497,-12.3971
ZnSi,0.0,0.0,0.0
NaPbCl4,11.4616,12.5336,1.072
TbNd2(YTm)2,23.6424,25.9378,2.2954
Ca2UNbN4,26.7088,26.3174,-0.3914
La7Y2Er3,39.8594,30.7653,-9.094
Zr4CdSi,71.578,58.9212,-12.6568
AlCr4Co,15.8905,12.1308,-3.7596
TiCrN2,5.2344,8.1788,2.9444
Sm2(HgBi)3,26.1912,27.4433,1.252
BeZn4Pt,23.8908,17.5234,-6.3675
NaZrCl4,21.6441,19.772,-1.8721
TmPaRh2,48.1759,43.4936,-4.6823
Y(Er3Al)2,28.3456,27.9552,-0.3904
EuSnPt,22.087,17.8952,-4.1918
ZrCrRu2,34.7196,33.012,-1.7076
HoBe17Fe,6.4261,6.2467,-0.1794
NaWCl4,12.4347,13.5399,1.1052
Gd2HfZr,75.3423,61.2871,-14.0552
Tm3Ge2RuC,27.4469,27.0536,-0.3933
TiBe17Al,5.9034,5.1189,-0.7845
RbZnSe2N,30.503,24.5573,-5.9457
NaCrI4,20.4398,21.3324,0.8926
Ce(ThAu)2,50.0379,52.9759,2.938
Be17CrNi,2.9595,4.1403,1.1808
AlIn4Ir,21.6667,23.0624,1.3957
BaNbTe2,56.1332,49.3193,-6.8139
TmBe17Al,8.2918,6.288,-2.0038
Be17CrRu,1.274,2.8567,1.5827
NaFeBr4,12.7879,13.5205,0.7326
CrSbIr,34.1685,31.0548,-3.1137
ErBe17Ir,3.7153,5.5887,1.8734
ErThBe17,4.9283,6.672,1.7437
DyBe17Re,3.4632,5.0639,1.6007
Na2Tl2CdIn2,29.9793,28.9544,-1.0249
Na(CuAg)2,17.3437,14.8822,-2.4615
MgBe17Rh,2.6525,3.5667,0.9142
NaFeI4,21.1237,21.4611,0.3373
Ti2PdRu2,3.4894,9.0116,5.5222
Rb2AgRhN,23.4768,17.9774,-5.4995
TaNb2S3,81.1924,65.6645,-15.5279
NaCuAg,21.083,17.4057,-3.6773
Y4Pd15Pb,24.9592,23.3592,-1.6
Be17MoW,7.2347,6.0278,-1.2069
Pr3(TmAg)2,15.6958,15.1176,-0.5783
Be17NbAg,9.4478,8.9881,-0.4598
NaUTl2,48.9031,49.224,0.3209
BeGa2As,7.5246,7.3829,-0.1417
Be17NbMo,8.9737,8.527,-0.4467
BeZnAg4,26.5398,18.4696,-8.0702
ZrCd4Si,32.0074,28.9118,-3.0956
Be17NbAu,9.8455,10.2806,0.4351
Be17MoPd,6.0572,5.1496,-0.9076
DyBe17Mo,3.0214,3.8146,0.7932
BaNaGa4,10.9908,9.9736,-1.0172
Mn3Ga2Co3,42.7151,33.7201,-8.995
In2GeOs,0.0,0.0,0.0
CsInSi,11.0167,11.5228,0.506
BeZnHg4,5.5997,2.7524,-2.8473
Pu3Mn2Sn3,59.4241,54.7616,-4.6625
BRuPb3,36.0685,37.2665,1.198
NdBe17Rh,3.8249,4.7727,0.9477
Sm2BeSi2,18.594,18.1108,-0.4832
Mo2(RuPt)3,44.7135,35.201,-9.5125
CaSi4W,20.8998,15.4804,-5.4194
YAl9Cu2,5.9682,5.3651,-0.6031
ZnHg2Pb,15.003,15.7612,0.7582
CdIn5Rh6,34.0011,27.5433,-6.4578
Mo3Pd2Rh3,32.0798,25.0187,-7.0612
SrCa2Tl,20.107,19.8958,-0.2112
SnAsBr2N,19.1394,16.5314,-2.6079
KNbS3,66.4721,50.7005,-15.7716
KBi2Rh,42.3618,40.263,-2.0988
BeIn2Tc,34.2038,30.9062,-3.2975
RbUN2,25.6311,27.623,1.9919
InAgGe,17.0142,16.4368,-0.5774
ScBe17Rh,4.3412,4.0732,-0.268
Zr2Be,58.8094,53.3704,-5.439
ScSi4Se,30.0801,21.8268,-8.2533
Ta2SiPt,44.1104,38.7459,-5.3645
Y2TiAl2Ni5,31.2562,28.3479,-2.9083
Zr2ScTc2,98.4342,81.6092,-16.825
TbMoAs2,14.8836,18.0118,3.1282
Sm5RhPb2,18.1979,21.6157,3.4178
AlZnSeN2,28.5251,23.8702,-4.6549
Ca2SiRu,17.0161,13.3748,-3.6413
PtSeBr3,36.5823,28.0461,-8.5362
CrSnPd2N,26.2209,21.398,-4.8229
Na2(InPb)3,33.2215,32.5563,-0.6653
TbScBe17,3.1827,3.6243,0.4416
Tb(Nb3S4)2,87.6656,67.74,-19.9256
ThScBe17,5.3076,5.7973,0.4897
SbTe2PbSe,46.2983,41.3044,-4.9939
Sm3Y2Er7,25.7771,27.7586,1.9814
Re2GeN,100.2841,86.1522,-14.1319
PdPb3Au,44.7575,45.7795,1.022
Tm4SbPbC,33.7422,31.638,-2.1042
PmV(GeO4)2,13.3457,12.6647,-0.681
TaSiPt2,57.2852,43.995,-13.2902
Cd2GaSi2,15.5967,13.6847,-1.912
CaZrOs,26.5498,32.2023,5.6525
AlFeRe,28.872,26.1085,-2.7635
Tm4TlPbC,35.2953,34.6658,-0.6295
Na2(LaPb)3,40.8545,34.8211,-6.0334
SrAc2Tm,43.3788,45.8119,2.4331
Tm2SbSe,37.2311,34.6728,-2.5583
Re3SiN,80.1898,72.1923,-7.9974
Ac2Tm,53.3635,55.8134,2.4499
RbMnPN,36.1764,26.8044,-9.372
KPmPt4,65.1334,47.921,-17.2124
Si2AgGeN,16.348,11.934,-4.414
CaReOs2,32.7341,36.5643,3.8303
Rb3Na2Au3,22.1815,21.1671,-1.0144
CaRe3Os,34.9704,37.6362,2.6658
Pr2HoPt,26.8636,22.1622,-4.7014
Na2BiOsC,42.219,36.5842,-5.6348
NaNdIn4,21.1674,21.6843,0.5169
Si3NiSe,20.0855,14.385,-5.7005
AlSbMo2,29.4716,23.1039,-6.3677
Sr2Cd2Ag,21.3425,17.1556,-4.1869
Zr2AuI,61.9145,55.3477,-6.5669
Na2(SrBi)3,27.9261,28.3333,0.4072
Na2(SrSb)3,23.9791,20.3276,-3.6515
AlSbMo2,29.7153,23.1039,-6.6114
K2ZnAs,8.891,9.4256,0.5346
CsRb2PuO6,8.8326,9.9579,1.1253
K3Cd5F12,0.3876,0.6123,0.2247
IO,40.8894,32.5406,-8.3488
PmTh4Tl15,52.3763,53.5829,1.2066
MgZnRe2,28.649,25.9104,-2.7386
Na3Tl2Au3,37.0022,35.7076,-1.2946
CdIrPb2C,48.0297,44.5117,-3.5181
AlSbMo2,29.8123,23.1039,-6.7084
GdMgZnPb,23.4434,24.9775,1.534
EuGdZnSn,21.0662,23.0965,2.0303
TiBe17Ir,4.0931,5.1959,1.1028
Be17SiTc,8.5077,7.3288,-1.1789
Be17TcW,10.9698,8.9707,-1.9991
PaBe17Tc,10.3018,9.1967,-1.1052
CeBe17Tc,9.7885,7.8441,-1.9444
PmYSe2Cl,48.559,44.7493,-3.8097
LaNb2I,86.0021,69.4026,-16.5995
ZrBe17Mo,6.6931,6.688,-0.0051
Be17VCo,8.4015,7.5933,-0.8083
ZrPaBe17,9.9316,9.2934,-0.6382
HgBiTe2N,29.7713,28.4693,-1.302
Ti2(NbIn)3,61.8145,53.4495,-8.365
AlZnSiN2,30.2807,24.2514,-6.0293
Cu2Ni7Ir2,13.13,15.8269,2.6969
AlSnAu,23.7863,25.5271,1.7408
BaCrSb2,24.0404,19.0348,-5.0055
CrCd2Ru,16.2388,17.3824,1.1436
GePAuN,31.2974,28.5757,-2.7217
CaPb2,36.6064,38.8506,2.2442
ZrBeIn4,30.1546,28.1251,-2.0296
Se12S5I3,38.2152,28.5412,-9.674
Hf3(Cu2Ge)2,52.5313,39.4069,-13.1244
Gd2RhN,26.4275,25.582,-0.8456
Ti3SbS,15.7818,12.9404,-2.8415
Be4PtSe,23.082,18.7587,-4.3232
CeSm2Tm5,23.8937,26.8722,2.9785
K(TiHg)2,1.1498,3.96,2.8102
CrCuP2,27.1765,22.3141,-4.8625
Na2InSnPb2,29.5695,29.6556,0.0861
CeUCN,50.3435,47.548,-2.7955
LiTcB4,15.742,15.7692,0.0273
TbNi4Sb,18.8611,17.8206,-1.0405
Mn4BePb,75.5929,60.0893,-15.5036
Na2SrSn2,20.4928,19.5397,-0.953
Pr5In2Pt,12.7704,11.1762,-1.5942
Zr(ScIn)2,26.0099,23.9464,-2.0635
Ce2GdAg,27.6757,27.9106,0.2349
NaHgS4,38.4699,27.8432,-10.6267
Hf2SnIr2,69.1396,56.7826,-12.357
Ce2SbCl2,19.0591,19.3394,0.2804
NaInS4,41.2242,31.2288,-9.9954
CaLa4Be,40.8629,26.406,-14.4569
YBiMo2S,43.0729,34.0861,-8.9868
Ca2LuN,10.7196,12.886,2.1664
CaNi,11.9699,9.1216,-2.8483
InRe2Ag,33.4287,34.5412,1.1125
Zr3AuS,56.4626,48.9444,-7.5182
NbH8Au5,27.2084,25.7315,-1.4769
BeFeP4,14.8016,11.9449,-2.8567
In(ReAg)2,33.1885,32.0902,-1.0983
CaYTmIn,22.1927,20.8993,-1.2934
NaCa3Rh,18.6669,15.0188,-3.6481
NaHf3Ir,101.6361,74.9532,-26.6828
TbPrAs2Pd5,13.7429,15.6667,1.9237
HfNiSb2Ir,61.7832,47.2635,-14.5197
NaCa2Rh,20.8331,16.9743,-3.8589
HfPIr,44.3019,33.4177,-10.8842
Hf2TlAsIr,79.8975,63.3415,-16.556
LiMoIrOs,28.5503,29.407,0.8567
K3H3Pd,0.0,0.0,0.0
SrVMo2,37.5815,33.6386,-3.9428
Cs(Ni2Ru)2,13.507,14.8869,1.3798
Hf2PIr,90.0093,67.0469,-22.9624
Sr2BiW,35.5472,30.4598,-5.0874
HfIrAu2,64.2426,58.7495,-5.4931
Hf5IrRu4,83.5757,63.1431,-20.4326
LiHf2Ir,82.3326,63.3386,-18.9939
Mn4BeRu,69.2494,54.5248,-14.7247
BeIn4Ru,16.9744,18.1166,1.1422
Hf(CuIr)2,41.4484,37.4383,-4.0101
Sm2Sn2Pb,23.3825,26.7637,3.3811
Hf3IrF,97.5042,71.0628,-26.4414
TbMn17Os,92.6525,71.2388,-21.4137
BeRe4P,41.5278,39.4591,-2.0687
HfTeIr,51.8054,40.7474,-11.0579
Ac2VReO8,29.3306,27.9531,-1.3775
HfThIr2,73.3862,66.734,-6.6522
YTeI2N,42.6674,37.8797,-4.7877
Ca(ScFe)2,30.6554,28.4686,-2.1868
Ho4Ir3Rh,35.7284,36.4396,0.7112
CuBi3Mo,47.3564,42.747,-4.6094
Hf2PaRh9,65.5809,47.6137,-17.9672