Formula,E_hull_DFT (eV/atom),E_hull_ML (eV/atom),Delta (ML - DFT)
TaPb2,42.2672,48.0183,5.7511
Sr4PmTh3As8,26.0277,23.6458,-2.3818
Ac3TeRhI,45.3424,44.665,-0.6774
Pr5(Dy6Tm)2,19.4672,20.912,1.4448
Pr12Dy5Th2,11.3721,13.0633,1.6912
SrAuBr3,9.628,10.5713,0.9433
KDy2Sc,18.215,20.181,1.966
KRePd,19.1027,22.3957,3.2929
AcAlPtO6,16.194,14.9938,-1.2001
In4CoSb,23.1011,21.6769,-1.4242
Tl(InAu)2,33.9858,35.8021,1.8163
Ba2InSi,8.778,8.585,-0.193
InCo4Ir,14.7686,17.7786,3.01
Li(TiIn)2,6.5566,8.9745,2.418
GaAu2F,27.7027,28.8391,1.1364
AcYAlPt,57.3317,46.7531,-10.5786
Ac2CdGa3Pt4,52.2689,42.2464,-10.0225
Mn3CBr,74.5518,55.4796,-19.0721
K5Sr3F12,0.0,0.0,0.0
TeAsAu2,36.9825,37.1134,0.1309
Sr2TiSb,16.8379,16.6466,-0.1913
Ga2FeMoO6,18.8448,15.1612,-3.6836
Ag(GeRu)2,17.2972,17.0347,-0.2625
YHoP2,17.4832,16.6746,-0.8086
Te2AsAu,35.7058,35.2023,-0.5034
Y7Pb6,31.6445,33.2301,1.5856
TeAs2Au,27.8003,28.5693,0.769
CsCrPt,35.7971,27.4485,-8.3486
MnCo2Se,40.8768,33.2117,-7.6651
SiIrBr2,21.3876,20.3197,-1.068
Cs2CrMoBr6,18.7405,18.1485,-0.592
LiNd(AlAs)2,24.7665,19.5664,-5.2001
Na2TaPd,23.026,23.3388,0.3128
Pm4AgF12,10.57,11.9318,1.3618
YPb,6.6195,17.3422,10.7227
NaSrPb,24.7056,26.1939,1.4883
Os2PtCl,45.5126,40.538,-4.9746
Cd2PbW,32.9871,34.6566,1.6695
CoCuHg,25.9043,19.7452,-6.1591
SrYBi2,35.639,35.6601,0.0211
CdTe2Pt,48.2978,40.2993,-7.9984
SrYBi3,40.4802,39.8276,-0.6526
CdTe2Pt,48.205,40.2993,-7.9057
NaAcAsO5,4.861,7.2065,2.3455
NaAlTcO5,7.5498,6.3766,-1.1732
SmThCuRu,28.868,32.0567,3.1887
Sr2YBi,25.9848,25.5648,-0.4201
Mg2CrAgH8,5.7532,5.2363,-0.5169
Fe4MoF12,8.2998,8.0958,-0.204
PmNi2Sb,24.9678,21.8629,-3.1049
Ac5Si6,36.8493,34.1495,-2.6998
Zn3Ir,17.0367,16.5194,-0.5173
NaZnO,25.5653,19.0875,-6.4777
Fe4HgF12,6.3292,6.8664,0.5372
La2TaAg,43.2959,35.5984,-7.6976
La2Tb(CI)2,41.8502,32.2711,-9.5791
Fe4SbF12,9.858,9.8732,0.0152
HoFe4F12,6.1079,7.4655,1.3575
Fe4RhF12,7.9698,8.2487,0.2789
TiAlGe2,17.3542,15.2797,-2.0746
La2TaAg,43.3141,35.5984,-7.7157
YCuPb2,44.3814,41.1631,-3.2183
TiAl2Ge,16.286,13.7709,-2.515
SbMoAs,23.6909,22.1817,-1.5091
CaTaP2O,28.9097,26.1723,-2.7374
VIn2Ge,44.8589,38.7634,-6.0955
TaCdTe2,35.2497,34.9168,-0.3329
ErTiAl,13.931,15.4636,1.5327
UGaRu,23.9408,27.9275,3.9867
TaCdTe2,35.2009,34.9168,-0.2841
LiLa2Ru,29.8693,23.2584,-6.611
Ba(BeI)2,24.5514,25.834,1.2825
Cd4MoF12,10.1281,11.1994,1.0713
HfTc2Ir,83.9678,70.8245,-13.1432
LuTlAg2,36.581,34.0051,-2.5759
SrAg2F6,9.7947,7.6828,-2.1119
Ho2PdPbO5,16.2453,12.6847,-3.5606
Fe4PdF12,6.0871,7.404,1.317
Tb6NdTm2Mg,20.7402,23.7428,3.0026
CuSiCl4,3.1741,5.0402,1.8661
InSiOs2,29.8762,31.1133,1.2371
Na2TlIrBr,31.4614,30.0269,-1.4346
Li2Ac(GePt)2,36.8418,31.9047,-4.9371
CuSiCl2,8.7898,7.5678,-1.222
PmCu4F12,7.5269,8.9143,1.3873
RbGa4F12,8.5457,8.4222,-0.1236
InGaRe2,27.7099,30.9394,3.2295
SnIrPtI,39.4273,36.2401,-3.1872
Fe2CoTc,37.0248,30.4047,-6.6201
La(MgH3)2,9.3139,7.6009,-1.713
TaTeSeN2,26.0695,24.7001,-1.3694
SrCd2Ir,25.4809,24.223,-1.2579
TaCoBr2,37.5888,27.9581,-9.6307
PmSmPtAu,45.6531,40.7072,-4.9459
SmSc(GaAu2)2,28.8915,30.6139,1.7224
La2Ga3Pd4Au,27.0674,23.4312,-3.6362
SnIrPtI,44.3089,36.2401,-8.0688
Mn2Fe2Pb,48.2308,40.6091,-7.6217
LaSm6Tm2Mg,22.4036,23.2508,0.8473
PmSmIrAu,39.0843,38.5336,-0.5506
SmTlCuAu,32.1292,34.3614,2.2323
SiAgMo2,19.5,18.2388,-1.2611
Y2Cr2Pb,46.0444,37.5091,-8.5353
Cs3CrSb,26.0412,23.3877,-2.6535
AlPtBr2,30.8211,23.6368,-7.1843
Sm2Rh2Au,32.1249,29.3606,-2.7643
CaNi2Se,37.2742,30.8365,-6.4377
Mn2ZnIr,66.4521,52.0458,-14.4063
SiAgMo2,19.5324,18.2388,-1.2936
SmPaAu2,46.2999,49.1621,2.8622
LaSmAuSe,41.7785,36.6429,-5.1356
Mg2CoRe,17.2006,16.4596,-0.741
CoTc2Pt,70.3157,57.2817,-13.034
SmPaOsAu,50.39,51.0274,0.6373
AcLaSnPt,55.8468,46.4332,-9.4136
Na2MnTc,63.4398,53.7348,-9.705
Sm2PaAu,40.9287,43.9893,3.0606
Cs(TlIn)2,30.8647,32.4841,1.6194
Ag2SnP2,14.6093,13.2624,-1.3468
SmZnBiAu,33.2497,35.4232,2.1736
Y2BAs,49.2845,43.4735,-5.811
YPb,27.2739,17.3422,-9.9317
MnNb2C,111.514,89.2687,-22.2453
TaAs2PtSe,51.6967,43.9556,-7.7411
Ga(FeAs3)4,26.0542,22.1178,-3.9365
CoRe2Tc,44.8334,46.5522,1.7187
Pm6Pr3Sc2,14.3632,14.9682,0.605
Sr2Zn2Ru,8.9105,11.0722,2.1616
SmPAu,19.1607,23.5974,4.4367
TbNi3Ge2,10.1955,10.2098,0.0143
Fe4Ni12Ir,27.9946,22.3819,-5.6128
CeSmTlAu,36.5741,39.1568,2.5827
SrTe3Ru,30.9263,30.2024,-0.7239
Be2Al2Pb,30.3669,22.014,-8.353
TaCr2P,63.1396,47.398,-15.7416
CeSm4Sb5,33.7836,30.1511,-3.6325
BaSiMo2,13.9325,12.7375,-1.1951
AlPdPb2,27.7591,30.4636,2.7045
LaSmZnAu,32.3802,30.19,-2.1902
BeAl2Pb,26.5289,23.1328,-3.396
LiEuTe,22.8322,23.3753,0.5431
BeAl2Re,22.8873,20.9132,-1.9741
Eu3Te,31.1222,31.5194,0.3972
BeAl2Re,22.9056,20.9132,-1.9924
BeAl2Pb,26.6628,23.1328,-3.53
KSrF2,9.353,10.4333,1.0802
BeAl2Re,22.8904,20.9132,-1.9772
BeAlRe2,32.1989,32.6684,0.4695
LiAs2Ir,15.921,17.7856,1.8646
Al3RePb,22.3012,23.2032,0.902
Ba2CdTe,14.4036,15.0775,0.6739
Cs3LiIn2Br9,15.6615,15.6552,-0.0063
ThBRu3,22.5351,26.1785,3.6433
AlRePb2,37.9832,39.6615,1.6783
AlRe2Pb,34.5237,37.8495,3.3258
SmTm6Al,26.5992,28.566,1.9668
Al2RePb,25.3205,27.7888,2.4683
LiLaAs2,17.4264,15.0873,-2.3391
ReSi2Hg,18.1055,16.0588,-2.0466
CsBe4Al4(B3O7)4,10.4442,8.9096,-1.5346
Cs(FeSb3)4,42.4307,33.4179,-9.0128
ZrCrFe,50.7429,40.3282,-10.4147
CdTeIr2,37.6354,39.4538,1.8184
Tb3I7Br,21.5652,23.6401,2.0749
NaY2MgCo,28.4127,22.7628,-5.6499
Y2Cu2Pb,39.3333,32.8353,-6.498
As2OsPb,23.1289,26.9418,3.8129
LiAcPrEr,22.6438,24.9259,2.2821
InSiMo2,16.5563,17.3731,0.8168
Be2SbIr,22.2611,22.3426,0.0815
YCu2Pb,32.8699,29.6268,-3.2431
Y2BiPb2,31.882,34.9019,3.0199
Be2SbIr,22.2976,22.3426,0.045
BeSbIr2,33.1002,33.5291,0.4289
SrV(AsO4)2,14.2249,11.6204,-2.6045
CdTeIr2,37.6473,39.4538,1.8065
NaYMgGe2,16.1387,12.3903,-3.7484
BeSb3Ir,36.4765,30.7989,-5.6776
Ba4CaV4Cu2F28,17.7361,16.0547,-1.6813
Ca2As3Pb3ClO12,11.123,10.9911,-0.1319
LiAs2Pb,18.3591,20.1874,1.8284
LiAc2TlPt,49.0376,46.8845,-2.1532
AsOs2Pb,37.4318,40.2691,2.8373
SmPAu2,30.2192,33.0067,2.7874
AcTbPt10,81.4656,58.7029,-22.7627
As3OsPb,27.1814,27.6584,0.4769
SrZrCl,50.5806,43.355,-7.2257
Cs2AsBr6O,13.0688,13.5242,0.4554
Sc2Ag2Pd,21.0584,18.1008,-2.9576
AsOsPb2,39.6737,41.9811,2.3075
Hf6CdFe2,89.1323,62.2711,-26.8612
TbCe2NdBi4,39.0916,41.33,2.2384
YbEu2MoO6,15.5342,16.4373,0.9031
NbTl2I,63.8441,58.2474,-5.5967
RbTlZn2,15.8636,16.8986,1.035
ScTl3V,58.2289,52.8567,-5.3721
Tl2CrP,52.6148,47.1849,-5.4299
Sc2InPb,21.5752,22.4855,0.9103
In2GaBr2,11.242,12.2876,1.0456
PmErPu,42.1773,45.0143,2.8369
CuSiTe2,23.7746,22.6278,-1.1468
CuSiTe3,26.8111,25.0276,-1.7834
TlCo4Rh,21.2505,20.5938,-0.6567
PrNd7Sc2,18.3797,19.8875,1.5078
CaTmMn2O6,59.7004,53.2192,-6.4812
AlIn2Ga,10.0838,12.9064,2.8226
Y6CuBi2,27.3944,27.1067,-0.2877
CuHgP2,4.7763,3.6973,-1.079
La(AlBi)2,33.2915,31.3451,-1.9465
SiMo2Os,28.5004,24.5197,-3.9807
LiReAs2,15.4077,17.8448,2.4371
Rb2Zn4Bi,12.9657,13.2364,0.2707
CrReRh2,36.6937,31.583,-5.1107
LaInAs2,22.2785,19.6934,-2.585
Li2(SmAu)3,22.5294,24.7978,2.2683
SrCu2Te,13.5459,15.3084,1.7624
Co2SiIr,17.4251,18.781,1.3559
Y2CuBi,29.4714,28.7434,-0.728
Cu2TcPt2,51.2487,39.7672,-11.4815
Ge(Te2P)2,26.5428,26.2201,-0.3227
SmGa5Ru,12.0067,13.1082,1.1015
LiNp2PaSe6,48.8638,44.072,-4.7918
Tl3MoRu,39.4321,39.3235,-0.1086
As2Br,6.6099,9.8132,3.2033
Pm3ErGa4,16.5994,18.9163,2.3169
TlMo2Ru,27.8526,28.6349,0.7823
PrSmO2,10.8888,11.9814,1.0926
TlMo2Ru,27.8197,28.6349,0.8152
HfTaSi2Se,52.4353,39.6617,-12.7736
LiPm2PaS6,44.3577,35.539,-8.8188
AlVGa,46.5577,38.7707,-7.787
CaPm(TmHg2)2,10.7477,12.5151,1.7674
Mn2ZnBi2,58.2537,49.7657,-8.488
CeZnPb,16.0861,22.5384,6.4523
Al2CdPt,28.4941,22.8785,-5.6156
ZrSbAu2,59.153,53.636,-5.5169
PrNbSi2O7,16.262,13.0228,-3.2392
Cu2Bi2Pb,31.7688,33.8578,2.0889
Mg2ZnH4,5.289,4.8032,-0.4858
Co2SiIr,17.5728,18.781,1.2082
RbPtI,34.1784,28.3591,-5.8193
MnZn4Ir,27.5119,23.6278,-3.8841
Li2OsAu,22.8575,24.4487,1.5913
LiOs2Au,33.2311,36.3765,3.1454
YCu2Pb,32.8625,29.6268,-3.2357
LaBe2Pb,26.4344,23.6308,-2.8036
ZrReSb2,57.1349,49.7541,-7.3808
Sr3Zr5O12,2.4984,0.0,-2.4984
LiRh3Au,40.3998,31.2825,-9.1173
Li2(SmAu2)3,32.1025,33.3712,1.2687
SiMo2Pt,33.5356,27.6336,-5.902
TlCdTe,37.4648,37.254,-0.2108
Tl2CdTe,40.632,40.9158,0.2839
VCrRu2,42.4299,37.7747,-4.6552
ReTe2PtI,48.5145,41.9093,-6.6052
CuBiPb,38.143,39.7321,1.5891
ReTePtI2,44.8492,38.9124,-5.9368
La2BePb,38.829,31.9528,-6.8762
SiRuS2,39.5474,29.457,-10.0904
LiCaLa,10.645,8.8158,-1.8291
SiMo2Pb,24.8922,26.014,1.1218
BeSbMo2,24.3693,19.3239,-5.0455
LiScRe2Au,45.8765,39.4013,-6.4751
La2BePb,39.133,31.9528,-7.1802
LiReAu3,37.4021,38.5932,1.1911
TbNd2SmHo2,22.1046,25.9927,3.888
La2BePb,39.0623,31.9528,-7.1094
LiRe2Au,32.8359,35.7233,2.8874
Y4Pb5,34.9821,36.8473,1.8652
Y5Pb4,30.8198,32.5848,1.765
AcCe2Pt9,75.7423,55.9326,-19.8097
Cs2Sm2TeO6,22.0102,17.3107,-4.6995
AlInGa,10.5347,12.2556,1.7209
SiMo2Pb,24.8722,26.014,1.1418
ReTe2Pt,53.9511,47.7872,-6.1639
ReTePt2,65.6781,53.4433,-12.2347
Tc2O5F4,0.0,0.0131,0.0131
ReTePt3,71.264,54.2914,-16.9727
Y2Cu2Pb,34.2993,32.8353,-1.464
YBiPb2,43.0923,44.6273,1.5351
BeTcN,53.5481,44.3245,-9.2236
Re3PtI,49.0754,44.4275,-4.6479
Y2Al4ZnAu3,30.4057,27.2349,-3.1707
YCuPb,36.2014,32.8176,-3.3837
Tb2LuGa,23.5527,25.6814,2.1287
ScHgH5,0.9187,1.748,0.8293
CrFe2Os,33.2439,26.4534,-6.7905
ZrTcOF2,40.7621,33.6868,-7.0754
BaMnP2,30.6028,23.8614,-6.7413
CuAsBr,13.749,13.0468,-0.7021
TaNbSe2,68.5022,60.144,-8.3583
Tb(Cl3F)2,6.4556,8.1209,1.6653
LaIr3Ru,43.7682,39.0486,-4.7196
SiMo2Pt,33.7307,27.6336,-6.0972
Ce(TaSe3)2,42.1944,37.3287,-4.8657
Cr2FePb,29.3119,25.3356,-3.9764
NiAs2Br,19.2807,16.3587,-2.9221
CrFeOs2,34.4086,32.8118,-1.5968
LiLa2InOs,33.9611,27.1883,-6.7728
CrFe2Pb,29.496,24.274,-5.2221
CrFe2Os,33.2638,26.4534,-6.8103
Th4Al12Pd,18.2447,19.9845,1.7398
AcNdPt,41.7143,46.3866,4.6724
Pr2ZnSi3Pt4,39.2871,27.048,-12.2391
ReSiMo2,24.369,23.9633,-0.4057
Re3Pb,43.7457,49.5745,5.8288
CePrGe2,9.0369,11.9981,2.9612
Sr2TcRu,35.0336,32.0149,-3.0187
AcNdPt10,81.2914,58.5518,-22.7396
Ac3Nd3Pt2,49.9062,45.3364,-4.5698
ReSiMo2,24.4845,23.9633,-0.5212
BeSbMo2,24.2387,19.3239,-4.9149
CuAs2CBr,23.6367,18.5837,-5.0529
Mn2SbSe,72.8602,56.7751,-16.0851
Ta2CrW,55.8828,49.5485,-6.3344
SiMo2Rh,23.4769,21.5339,-1.943
Re2NiOs,51.6582,44.0453,-7.6129
SiMo2Ru,18.479,18.1054,-0.3736
LaTaSi2O,36.9535,32.1579,-4.7956
K3BiO3,0.0,2.3931,2.3931
Pm2SmAu,30.2272,32.9935,2.7663
NaAcN,29.788,29.6831,-0.1048
CePr5Bi4,21.3955,23.2487,1.8532
CoIrBr,28.9893,25.7231,-3.2662
YCuBi,41.9078,37.4305,-4.4773
SiMo2Ru,18.5206,18.1054,-0.4153
Re2TcNi2,58.9289,41.362,-17.5669
BaSb2Mo,22.5026,18.5388,-3.9638
NaScTcO5,38.2406,32.977,-5.2637
SiMo2Ru,18.6892,18.1054,-0.5839
LiSmAsAu,19.8835,22.0374,2.1539
K3PmNb2O9,21.2758,18.5,-2.7758
CaSmAlAu,19.6698,22.0147,2.3449
BaCoSi,0.0,0.0,0.0
NaCa2ZnPt,27.1879,19.9531,-7.2348
AlInGa4,9.5657,10.6326,1.0669
SmMgAu2,29.8585,31.925,2.0665
PmSmAsAu,25.907,28.7089,2.8018
Tb3(Tm3Sc)2,24.9324,28.2169,3.2845
Ac2NdPt9,79.066,59.217,-19.849
SmTlAu2,38.1473,40.8759,2.7286
CaAc2Ga3Ir4,35.678,35.423,-0.2551
HPb2IO6,19.6399,19.0711,-0.5688
La4Te2AsIr,41.6852,34.0351,-7.6501
PaH(PbO3)2,16.0921,17.5739,1.4818
Nd3(Y3Sc)2,19.2426,18.8958,-0.3468
Ac2NpGe3Ir4,39.4254,42.012,2.5867
Sm2ScSn2,19.5323,19.5671,0.0349
LaPr3As4,8.1736,8.3388,0.1652
PrSmLu2,21.92,25.0069,3.0869
Pm(SmSc)2,18.8357,19.4652,0.6295
SrYPb,29.2901,29.2167,-0.0734
SrYPb2,34.871,35.3067,0.4356
LiTb2Lu,21.9731,24.6296,2.6564
MgNiOs,4.8976,14.6889,9.7912
LiHfAu,63.588,50.6918,-12.8963
Tb4Al12Ru,8.8183,10.5849,1.7666
Zn2Ga2Te,14.9085,15.379,0.4705
CePu2F6,21.7835,23.8577,2.0742
SrTi2Fe,18.1557,16.8721,-1.2836
SrYPb,29.3186,29.2167,-0.1019
Sm5DyPb6,38.5156,40.0713,1.5557
Ba4SiPb,11.6718,11.469,-0.2027
Bi2SbHO6,15.7508,17.1723,1.4214
CdPbW2,38.2707,41.36,3.0893
Sc4Al12Pd,5.7517,5.9071,0.1555
SrYPb,29.4284,29.2167,-0.2117
LiTcAs2,28.1491,25.8511,-2.298
SiMoOs,28.2708,26.4984,-1.7724
SiMoOs,28.7375,26.4984,-2.2391
Sm4Al12Hg,7.6114,9.1722,1.5607
CaGa2Cu3(RuO6)2,10.6519,10.5642,-0.0877
CaLaTaFeO6,17.3014,17.0248,-0.2765
NaOs,3.7444,9.1345,5.3902
Sr2TlSn,21.0988,23.354,2.2552
BaVAg,41.6124,32.9427,-8.6696
SrY2Pb,25.4521,25.3267,-0.1253
TaSiMo2,54.4704,46.2799,-8.1905
Hf2TiV,105.5491,79.0552,-26.4938
LiTaAu,22.406,27.8954,5.4893
Na2Sn4GeAu3,28.1458,27.8576,-0.2882
HfTi2V,62.8978,50.5517,-12.3461
POs2C,29.3266,29.3128,-0.0138
SrYPb,29.9378,29.2167,-0.7211
RbZr2Tl,63.1977,54.7489,-8.4487
Ta2RhSe,42.6393,39.0082,-3.6311
AgIr4Pt,49.7562,45.8554,-3.9007
NaNd2As3Pt4,45.4364,34.8494,-10.587
ErLu(B2Ru)2,4.1383,8.6464,4.5081
SrFeSe2,33.0138,27.3723,-5.6415
Ba2Zn2PtO6,18.991,13.6174,-5.3736
RbCr(CuP)2,25.2136,20.561,-4.6526
Mn2ZnMoC,56.5243,44.1668,-12.3575
Ac6Ir3Se2,54.7597,55.1778,0.4181
Ca2YB,49.1168,42.1863,-6.9305
CdReW2,63.7733,56.1537,-7.6196
PmSmGeAu,25.859,28.7561,2.897
SmEr(GaRh)2,27.4116,24.1251,-3.2864
GdBeCu3,13.2858,12.7763,-0.5095
Rb2FeIrCl6,7.7993,8.116,0.3167
Sm3Fe3Ge2Au,15.3278,17.2742,1.9464
Ta3MnP,44.8975,40.7818,-4.1157
CaYB3,42.779,35.4503,-7.3287
TaP2W,71.6109,61.6959,-9.9151
ZrRuC2,61.6349,50.3806,-11.2543
TaCdPb2,40.7899,42.6164,1.8265
TaCd2Ge,21.8917,23.8639,1.9722
GeTe3Os,36.2832,35.1524,-1.1308
SmTmGeAu,27.3272,30.3842,3.0571
La2CoBr,35.7072,24.1908,-11.5163
La2Sm3Au2,38.5272,35.0508,-3.4764
TaCr2CdO6,17.5238,14.4366,-3.0872
SmBe2AlAu5,34.7847,33.5709,-1.2137
LiTaSi,24.3078,24.4452,0.1374
Pr5YBi4,21.7866,22.5626,0.7761
KSm2Er,23.0578,25.0856,2.0278
LiCaTaSi,19.6631,15.7897,-3.8734
CrGe2Te,18.2107,17.7814,-0.4293
TlCdW2,37.6809,40.9065,3.2256
ZrZnSb2,48.6045,39.9355,-8.6691
TlSbOs,47.0205,45.6109,-1.4096
InNiTe2,27.9639,27.8473,-0.1166
Np2Os,48.5066,56.294,7.7874
Cd2MoRu,19.1914,20.2965,1.1051
NaHoGeAu,26.8822,27.6612,0.7791
Na2In,22.979,20.0725,-2.9065
Zr2TlTc2,78.6889,67.9813,-10.7076
NaGaAsSe3,36.9546,31.9637,-4.9909
LiAs2W,16.6724,17.056,0.3835
NaGaAsSe2,40.3407,34.9118,-5.4289
Te4AsAu,37.6395,36.7974,-0.8421
GaSb2Te,35.3267,30.3715,-4.9552
Mn2InCu,56.6252,45.4317,-11.1935
SmGa2CuAu4,30.1466,31.0163,0.8697
LiAs2W,16.6149,17.056,0.4411
CdWAu2,38.4603,40.6167,2.1564
MnIn2Cu,36.6234,31.6129,-5.0105
ErMoN3,8.6181,11.5383,2.9202
TlSiMo2,24.2671,25.1353,0.8681
ZrPbW,63.7493,60.8127,-2.9366
TlSiMo2,24.6428,25.1353,0.4925
Zr2AsW,61.9524,55.3581,-6.5942
TaAlTeSe2,35.6283,31.8072,-3.8211
LiZrAs2,29.1365,26.389,-2.7475
TlNiP,26.8552,26.8234,-0.0317
ErMoN2,10.7237,15.029,4.3053
Sm2GeAu3,32.9714,35.1303,2.1589
ZrAsW2,47.2747,45.8958,-1.3789
Ac3Zn2InPt9,68.4929,52.0516,-16.4413
ZrAsW2,47.2393,45.8958,-1.3435
RbTlC,34.2182,29.6259,-4.5923
CsInGa2,15.4395,16.694,1.2545
Ac2InSn3Pt4,56.0308,45.9546,-10.0762
Sm3P2Pt9Au,61.6079,45.3817,-16.2262
Sr5Br,14.1401,14.3973,0.2571
AcInPt,41.4298,41.8466,0.4168
Cs3GaP2,0.0,0.1982,0.1982
CsInGa2,15.2492,16.694,1.4448
CaTiNi(PO4)3,11.9213,11.4034,-0.5179
SbO2,13.379,15.6602,2.2812
MnSi2Se,44.6362,33.5344,-11.1018
NaCdAsRh,21.4482,19.3627,-2.0855
ScAlSb2,26.1114,21.6591,-4.4523
TaAgAu2,40.7073,40.8397,0.1324
TaMnSi2,41.4608,34.4202,-7.0406
SrCa4Cr,14.9917,11.984,-3.0076
MnBi3Rh,63.0756,55.4194,-7.6563
ThTiP2,19.2795,22.61,3.3305
MnBiRh2,63.0327,50.7608,-12.2719
ZrSc3I,27.769,25.2817,-2.4873
Y(PbO)2,39.1399,37.8078,-1.3321
MgSn2F6,9.1053,8.7822,-0.3231
SnO2,51.3456,44.9219,-6.4236
Sm6Ir2AuBr3,34.8819,30.3445,-4.5375
Li2ScTl2,18.807,20.6004,1.7934
Mn2TlV,94.9113,76.4459,-18.4653
CsTaN,13.773,17.2666,3.4936
Sm2GeAu,25.9141,28.9806,3.0666
LiAsAu2,26.0994,27.4288,1.3294
CdIr2W,36.143,40.1002,3.9572
Mn2TlPb,76.0394,64.4088,-11.6307
Rh2PbCl,38.9264,32.1996,-6.7267
SiMoAu,25.9731,26.9567,0.9836
CoReBr,28.7218,25.4657,-3.2561
Rb(TcB)2,32.6849,29.7636,-2.9213
Cu2MoOs,29.6227,27.4401,-2.1826
HfZn2B,40.9248,30.5883,-10.3365
LiAcGe2Pt,33.8112,29.9091,-3.9022
Mg2InRu,11.0492,12.2504,1.2012
AcInPtAu,54.5312,49.1697,-5.3615
AlCBr2,20.3248,15.847,-4.4778
EuPb2,44.1654,45.8384,1.6731
CuMoOs2,38.3637,35.5259,-2.8377
SiNiP,17.2229,14.6115,-2.6114
ScIn2Ag,17.4303,15.4917,-1.9386
CuMoOs2,38.4344,35.5259,-2.9084
FeSbRu2,37.0848,29.1002,-7.9847
Tb2GaC,24.525,24.9963,0.4713
SrC3S,54.1465,37.9482,-16.1983
NaZnCdPd,17.1256,17.0877,-0.0378
NiCSe2,36.6787,28.8351,-7.8436
Fe(CuNi)2,17.7052,15.2494,-2.4557
CoRe2Br,30.9971,30.5338,-0.4634
Ba2Y2Ir,48.5556,41.0414,-7.5142
Mn2ZnF6,21.3275,18.1701,-3.1574
AcZnCdPt,44.7621,39.2594,-5.5027
CaLaSc2Rh,28.4506,18.2222,-10.2284
Tb7CeTm12,29.1958,30.4621,1.2663
CoRe2Br,31.4397,30.5338,-0.906
Sc2GaFe2Rh5,35.4159,28.0885,-7.3273
TiOsI,1.8536,7.8581,6.0045
U2PIr,52.6436,52.535,-0.1086
CoTcRh2,49.5575,39.8866,-9.6709
TlCrBr3,29.1317,27.0418,-2.0899
Sm3Al3Ge2Au,24.8284,23.2312,-1.5972
Y3Bi,23.708,25.7187,2.0107
Tl2CrBr,44.3936,41.9467,-2.4469
LiAsBr2,17.5138,16.6312,-0.8826
CdPb2W,41.3172,43.4031,2.0859
Sr(MgPd)3,7.0373,8.8543,1.817
ZrTa3S,55.1891,49.6264,-5.5626
Tb6Ga2C,21.2801,21.5048,0.2247
TiTe2P,18.8592,19.9096,1.0504
VTeP2Cl,38.7195,32.0377,-6.6818
NaZrAs3,30.4795,26.4911,-3.9884
ZrAg2Mo,44.3294,37.7155,-6.614
CdPtW,49.1706,42.6341,-6.5365
CoRe2Br,31.2481,30.5338,-0.7143
LiP2Ir,18.7954,15.9007,-2.8946
SmSiAu,12.8116,16.9965,4.1849
YTi,0.0,0.0,0.0
CaAcTh,45.342,48.1224,2.7805
Ba2LiSbS,16.4996,13.26,-3.2395
SmPu2(SnAu)2,43.1324,45.2085,2.0761
TiOsPt3,64.2767,48.3678,-15.9089
Y2BiPb,33.2054,35.2104,2.005
Ba2SiMo,9.7116,7.9205,-1.791
ErPaGaRh,38.1124,37.6221,-0.4903
AlCoCl2,16.55,11.1614,-5.3886
AlOsRu2,19.184,23.1722,3.9883
AcErGaRh,37.3563,35.8636,-1.4927
Y2Ga2PdAu,18.4775,18.2758,-0.2017
Ga2PRuS,26.8912,21.1793,-5.7119
Y8GaPt24,67.776,47.2717,-20.5044
GaIrPb,29.5233,32.8987,3.3753
Lu2InTc,44.841,43.0656,-1.7754
In2MoF6,5.9833,7.9198,1.9365
Sm4AlGa12,11.4933,12.6152,1.1219
Pm4AlGa12,11.4353,12.6298,1.1944
Na(CoI)2,13.6073,14.2945,0.6873
Ce4AlRh12,40.0184,29.7833,-10.2352
Hf2ScRu,76.9056,58.2744,-18.6312
CaAcTbTm,31.828,34.3357,2.5077
Y3GaB,47.4699,39.826,-7.6439
AcAlZnPt2,49.8869,40.279,-9.6079
Pm5TlCd4,24.8232,26.729,1.9058
Sm2Be4Ge3Au,12.0648,13.9234,1.8586
Ca2Mn2V3AgO12,35.5481,28.9339,-6.6142
HfTe3I,59.803,49.2546,-10.5484
Ti3PBr,6.6805,8.1391,1.4586
CaTb2Tm,22.29,25.0705,2.7805
Tm4Al12Re,11.2793,12.8805,1.6012
Tm4Al12Zn,9.4176,10.8225,1.4048
YTm(FeSi)4,23.7476,19.8274,-3.9202
Al(Zn3Ag)4,13.3011,11.8351,-1.466
Rb2RePt,30.3404,25.4709,-4.8695
Cs2Tl2Pd,31.2936,34.6737,3.3802
PrTiIn,1.2828,5.2135,3.9307
TePtW2,52.7574,48.3581,-4.3992
Mn2AlMo,59.3472,46.917,-12.4303
NaPr2Ru,35.4901,30.752,-4.738
Ta10Si2MoSe8,35.1358,32.0814,-3.0544
CrGa2Cu,5.576,6.3846,0.8087
CeAl4Tc,17.9985,16.3827,-1.6158
EuRe6,39.2775,42.5212,3.2437
Cd2SiMo,17.4533,17.4131,-0.0401
CoRuBr,20.1159,17.36,-2.7559
UCd2P,27.4848,30.2217,2.737
Y3(Si3Pt2)2,43.6078,30.8779,-12.73
Rb2TlIn,18.8417,19.0148,0.1731
SrCo2W,19.3131,16.9414,-2.3718
AcPdPtO6,18.3918,16.884,-1.5078
CeErGaRh,27.3475,26.3655,-0.982
Sr2TaRu,23.3745,24.5629,1.1884
KSn2S,27.8473,24.6832,-3.1641
CsHf3I,98.0336,71.2529,-26.7807
Be2HgMo,4.7167,4.649,-0.0677
Ta2PbF,41.4778,39.8516,-1.6262
AcCrGe2Pt5,59.4686,44.6021,-14.8665
Sr2TaRu,28.1557,24.5629,-3.5927
BaY3Ir,31.7779,28.9834,-2.7945
YAlIn2Ir,32.9395,29.6493,-3.2902
Zn4ReRu,22.1291,19.0302,-3.0988
LuInRu2,14.6446,19.9402,5.2956
Re2Ir2Pd,27.5906,34.846,7.2554
ReAg2Ir,32.3784,33.1449,0.7665
BaYIr2,49.9291,47.589,-2.34
Sr7YZr2,31.6677,28.5621,-3.1056
BeHgMo2,13.0688,11.0179,-2.0509
ZrTaAs2,38.5533,36.7934,-1.7599
FeCu2GeSe4,36.1012,29.6578,-6.4434
SiHgMo,10.4558,10.5909,0.1351
Re3WI,39.5004,41.8103,2.3099
LiY2(TmSe2)3,32.3987,28.896,-3.5027
SmHfRhAu,65.7195,53.488,-12.2315
LaAlTl2,38.9539,35.9701,-2.9837
CoOs2W,96.0602,79.3728,-16.6874
Re2SbW,41.3423,43.2875,1.9453
Y4FeB14,34.5595,28.2246,-6.3349
ZrTaAs2,31.4154,36.7934,5.378
Mg(BC)2,35.3397,28.2634,-7.0763
LaYMgIn,23.1129,19.4757,-3.6372
AcLaSmAu,47.0848,44.8863,-2.1985
NaGaPb2,34.5081,34.5031,-0.005
GdY2Tl,26.886,29.6211,2.7351
CoNi2W,34.7109,29.0294,-5.6815
Na3CrMo,22.0712,18.9743,-3.0969
SiHg2Mo,7.9788,7.7935,-0.1853
NbGeN,26.1918,27.7501,1.5584
ErGa6Rh,15.6977,15.0532,-0.6445
NaYMgIn,16.5684,15.541,-1.0273
HoErGaRh,28.0819,27.2935,-0.7884
LiAsIr,18.1709,21.0966,2.9257
Er2GaRh,28.3396,27.5467,-0.7929
La2Dy(YTe2)3,34.0224,30.8345,-3.1879
Ac3Al2(SiPt2)2,59.7479,48.0085,-11.7394
Tb2Pr8Er,4.1863,5.8309,1.6446
TlCoRu,19.4556,22.7846,3.329
SrNb2Cl,77.9903,65.893,-12.0973
Na(NbNi)2,57.7686,50.7711,-6.9976
CrCoRh,21.9402,18.0036,-3.9366
Co2CuOs,31.076,28.4343,-2.6417