Formula,E_hull_DFT (eV/atom),E_hull_ML (eV/atom),Delta (ML - DFT)
AcNdYHo,32.9376,36.1978,3.2602
Pr2MnGa,29.1631,23.7933,-5.3697
AcNd(H3Pt)2,21.6654,16.5226,-5.1428
LiAcYHo,27.0513,29.564,2.5127
InRe2Rh,37.6468,36.8358,-0.811
ThCoCu,40.6162,38.6087,-2.0075
Pr2ErF11,-0.0,-0.0,0.0
YCrRu2,26.135,25.6259,-0.5091
ScNb2,87.5283,74.0359,-13.4924
AlCuNi6,6.6552,8.2162,1.561
LiP2RuS,22.0347,20.1491,-1.8856
Sm2Dy2YHo2,25.1773,27.7759,2.5986
Th2CoCu,51.8673,49.5138,-2.3534
PrEr2F11,2.0807,2.1943,0.1137
AcYHoIn,32.7018,34.4777,1.7759
MnCuSb2Te,48.2243,39.3016,-8.9226
LiP2RuS,21.2625,20.1491,-1.1133
NaErGa4,14.2508,14.8642,0.6134
CaY2Zn,17.0238,13.7298,-3.2941
EuLuPdRu,23.5406,26.8043,3.2637
Na(InI2)2,21.8092,21.4962,-0.313
MnNbSb2Te,75.3397,60.9069,-14.4328
CaY5Zn4,15.422,12.8233,-2.5987
CdRuBr,22.8088,21.2849,-1.5239
MnAgSbTe2,52.4244,43.3859,-9.0385
EuTmSnPd,26.6421,26.5141,-0.128
Mg2Al12Ni7,3.6008,5.03,1.4292
TbCeMn,50.4634,46.3359,-4.1274
Ta2Be3,14.1998,16.536,2.3362
Ca2MnTe,37.6623,32.5402,-5.1221
SrCe2YSe4,33.029,28.4074,-4.6216
LiTaPb,30.943,33.548,2.6049
GdThZnPb,38.6583,41.4292,2.7709
Mn3SbTe,77.9448,62.9235,-15.0213
Cd3InSb,24.8356,23.1804,-1.6552
CaY2Zn,17.2094,13.7298,-3.4796
Y2ErCu4,26.7553,23.0551,-3.7002
RbMnAgTe2,38.6668,33.2978,-5.369
Ba2SrNi,9.5628,8.396,-1.1668
AcZnH7Pt2,22.6506,18.3169,-4.3337
Mn2TeRh,72.8954,60.6834,-12.212
RbMg14W,5.6733,5.9007,0.2273
Sr2GaBi,21.9441,23.5405,1.5964
MnSbTe2,57.2719,48.6745,-8.5973
MnAgTe2,54.0014,45.7834,-8.2181
AcGaH6Pt,17.9434,14.9365,-3.0069
Cu2ReTe,24.5491,25.6557,1.1066
DyErCdAg,26.5094,26.954,0.4446
LiTePb2,36.6632,36.855,0.1918
Rb2Y2RuO6,24.9405,21.5549,-3.3856
CuRe2Te,32.8886,35.4346,2.546
Mn2TeBr,63.3881,52.7755,-10.6126
CaY3Zn4,10.1598,8.7636,-1.3962
PaFeSn,41.3663,39.4368,-1.9295
MnIn2Te,45.5567,40.4107,-5.146
MnTe2Br,48.5635,42.8413,-5.7222
CdReTe2,65.3222,57.0294,-8.2927
LiTe2Pb,33.9952,33.4034,-0.5917
LaPtBr2,41.7145,30.3335,-11.381
BaMnTe,46.9516,41.0996,-5.852
TaCdSe2,37.7709,35.2455,-2.5255
Mg14GaSi,3.8299,4.3612,0.5313
AcInH6Pt,19.1912,16.3706,-2.8206
Sb2TeCBr,49.2681,39.8798,-9.3884
YTlW2,46.083,39.8489,-6.2341
ZrAlTl2,50.8279,46.7759,-4.052
AlHgW,14.32,17.6369,3.3169
YZn2In,14.113,14.1506,0.0376
TcSb3I,50.4167,41.1351,-9.2817
AcCr2H7Pt,15.6282,13.6612,-1.9669
YTl2W,48.9458,41.5191,-7.4266
ZrAl2Tl,38.7234,34.8878,-3.8355
K2TaInSe5,30.2401,26.5345,-3.7056
MnAlTe2,46.9038,41.2895,-5.6143
LuGaIr2,24.6956,29.7913,5.0958
Zr2AlTl,62.5433,53.3756,-9.1677
Al2HgW,11.8241,13.6678,1.8437
Cs3AuO2,29.5848,25.0175,-4.5673
TbFe6,4.3781,5.8757,1.4976
Zr2AlTl,62.3261,53.3756,-8.9504
BaMn2AgTe4,44.5427,37.9792,-6.5635
Zr2AlTl,62.4101,53.3756,-9.0345
Mn2TeIr,71.3239,61.8031,-9.5208
NpTlPd2,39.0487,41.2186,2.1699
SrMn2Te,63.8867,53.4842,-10.4026
TaMn2Te,69.8073,60.8301,-8.9772
AcAl(H4Pt)2,20.4758,17.0012,-3.4746
Zr2TaCr,86.1983,66.0123,-20.1861
SbTeMo2,31.7439,28.996,-2.7479
NbCo3Si,36.5173,30.4603,-6.057
Hf5Al3H,73.0413,51.9528,-21.0885
Mn2HgIr,60.6814,52.2044,-8.477
TaMoSe2,37.4102,34.3595,-3.0508
Mn2NbTe,95.9155,79.3064,-16.6091
TaSb2TeAs,36.3972,32.1764,-4.2208
LiTbLuSc,16.9101,19.3149,2.4048
TmMn6InSn5,57.6316,48.9674,-8.6643
Tl(CdAu)2,34.4129,36.1957,1.7828
KRe2Te,34.9904,35.6513,0.6609
ZrPtBr2,54.0941,41.515,-12.5792
KBeTc2,51.1617,44.0239,-7.1378
DyErCdIn,23.5438,26.0841,2.5402
Y2Zn2In,11.9803,11.4653,-0.5151
Ca2YZn2,10.0847,8.1509,-1.9338
Ca(YZn2)2,12.972,11.5008,-1.4712
SiSbCl,21.5757,16.954,-4.6217
GaSiOs2,20.002,22.2349,2.2329
Y2ZnIn6,19.1248,18.1858,-0.939
Sr2Sm2Rh3,31.5535,27.7631,-3.7904
LuIn2Ag,25.8585,25.7581,-0.1003
MnSiAu2,52.256,46.4706,-5.7855
Rb2Sn2Sb,14.9231,13.4615,-1.4616
MnSiAu2,52.3792,46.4706,-5.9087
TaInRh,35.6541,33.5564,-2.0977
KTl2ZnPd,27.7277,28.0491,0.3214
Mn4SiAu,76.9543,63.3534,-13.6009
CuSiMo,28.3605,20.1223,-8.2383
ScPa3,51.9033,55.9339,4.0306
ZrPt2Br,72.4082,54.6027,-17.8055
ZnReSn2Os,36.9687,32.5054,-4.4633
Pm2TmPd,24.1666,27.6708,3.5042
K(Pr3Se4)2,22.8915,18.0504,-4.8411
CePmHf,64.6433,53.5674,-11.0759
Al2AgSb,20.7334,19.0265,-1.7069
LiZrPb,40.3638,37.3807,-2.9831
La6PrY2Ho,36.6244,25.9809,-10.6435
Zr2Ga2Au,45.6335,39.9083,-5.7252
CaBiPS2,46.4805,37.4104,-9.0701
BaPa2AgO7,12.9461,14.2754,1.3293
BaBeN2,16.8591,14.374,-2.4851
DyEr2Cd,26.25,29.034,2.7839
Pr3Ag(Ge3Pd)2,9.6043,9.3303,-0.274
PmScTlPd,28.2891,28.5726,0.2835
Sr2TlTePd,26.8293,27.4176,0.5883
Sc2Pa,25.9251,30.1885,4.2634
SiRuCl,16.3768,14.5639,-1.8129
Gd2AgPb,35.6883,36.4451,0.7568
RbTaBi2,32.6108,35.3432,2.7324
Tl2AgRu,38.2319,37.7478,-0.4841
TaSbSe2,44.482,37.8129,-6.669
GdAgPb2,41.1443,41.1841,0.0398
FeRu3Cl,26.2399,20.9695,-5.2704
Tl2Cr2Pb,30.2746,31.0208,0.7463
ZnAsP2S,24.8705,22.4649,-2.4056
SrCaC2,37.8521,27.2236,-10.6285
AcCo2H8Pt,13.759,12.2806,-1.4785
CsMnTe2,46.906,42.569,-4.337
AcTa(H4Pt)2,23.2755,19.4766,-3.7989
Ga3IrC,26.5729,23.5554,-3.0175
AcV(H3Pt)2,36.8895,29.2248,-7.6647
AcZr(H3Pt)2,33.7199,27.0156,-6.7042
YCr,14.6324,11.7944,-2.838
PrNdSbH,10.3057,13.0912,2.7855
NdDyErCd,24.9954,27.7906,2.7952
Na3Al5F12,7.1214,5.3417,-1.7797
Sr3(ZnSi)2,24.4746,18.1111,-6.3635
NaTmSe2,36.2239,31.5531,-4.6707
Pr2MgF,4.6358,6.5068,1.8709
BeAsI2,24.5103,23.9182,-0.592
SiRu2Cl,19.6254,15.657,-3.9684
YSiNi4,32.6953,28.9311,-3.7642
Er3In3Ir2,28.7729,30.4896,1.7167
Tl2ZnPdI,30.4485,31.0036,0.5551
Sm8P3SeS4,29.129,29.0675,-0.0615
YZrAlF2,40.9804,32.6174,-8.363
Zn2HgPb,17.1344,18.0275,0.8931
BeTl2PdPb,37.2489,36.9264,-0.3225
AcCu(H3Pt)2,27.4471,22.8337,-4.6134
Ce3Ir7Ru2,36.6411,37.038,0.3969
MnZnTe,49.9369,43.1516,-6.7853
Cs3Tl7Rh2,43.8454,42.189,-1.6564
Tb6Pm2YHo,20.5261,23.53,3.0039
Nd2YHoEr6,22.1984,24.8752,2.6768
NdSm2YHo6,21.2521,23.9857,2.7336
CaMnTe2,46.6293,40.7714,-5.8579
Y2Cr2In,39.0023,30.9909,-8.0114
Y2ZrTiCu,52.284,40.4197,-11.8643
BaMnSbTe2,45.1821,38.1659,-7.0162
Y2GaAu,20.713,22.3399,1.6269
ZnCd3Sb,22.4609,20.606,-1.8549
RbTa2Bi,28.949,33.0054,4.0564
Al2(SO4)3,2.7429,3.5382,0.7953
Pr3Bi2Ir,22.4136,24.735,2.3214
Rb3Y3CrSe8,33.4923,26.6327,-6.8596
Pr4AlTl,1.4718,4.1345,2.6626
TlOsPd2I,31.8688,32.6346,0.7658
SmYOs,35.1295,33.5152,-1.6142
Sc2B,3.5452,6.7395,3.1942
YTlPb2,42.1694,44.4878,2.3183
Tl2NiPd2,24.7666,26.9168,2.1502
BaTaCo2,36.0683,26.586,-9.4823
YTl2Pb,41.9308,43.8516,1.9208
TaPt4W,63.0642,46.9721,-16.0921
K2NaBi2,28.6908,28.3737,-0.3171
BaTaCo2,36.6002,26.586,-10.0141
Er3(InIr)4,30.5324,32.8467,2.3143
Cu2Ni,6.5715,9.3009,2.7295
Y(TlPb)2,44.1119,45.7366,1.6247
Er3HgAu4,29.7972,32.5561,2.759
CaTb3(Sm3Y)2,23.5796,24.0435,0.4639
KMg6Cu,6.9224,5.9803,-0.9421
MgAsPS2,33.6059,24.7837,-8.8222
Y2CrIn,35.8313,31.0822,-4.7491
YGaAu,13.0647,18.0919,5.0272
Ta2InRh,35.6913,34.798,-0.8933
SbPtBr2,47.5032,40.0504,-7.4528
LiTbC,24.7189,22.0518,-2.667
Ac3Pt2Au3,63.3691,57.5114,-5.8577
Mg15Bi,5.8103,6.6648,0.8545
Mg15Mo,3.6673,4.5229,0.8556
SrScAl,4.0868,6.6939,2.6071
K2BaHf,40.4323,29.9182,-10.5141
Pu2Bi3,53.0412,57.0549,4.0137
Fe3SbC,32.0251,24.5171,-7.508
TaIrSe2,44.3421,41.271,-3.071
YbCo,7.719,14.4467,6.7277
Ac2BrO2,26.2446,28.8189,2.5743
TlAgSbPd2,34.1036,30.5603,-3.5434
CdReI3,50.0113,43.0209,-6.9904
Tl(SbPd)2,31.6284,29.0712,-2.5572
Cs2PIrBr6,18.4667,17.6045,-0.8622
YbCo,20.8725,14.4467,-6.4258
ScTlCr,32.4481,29.5819,-2.8662
TlInTe,37.4839,38.1905,0.7066
CrRhC,33.6582,27.9205,-5.7376
Pa3Cr2Si7,26.9278,24.4402,-2.4876
Be3CdI,18.5953,18.7172,0.1219
Sr4Zn2Au,16.4365,17.3448,0.9083
TaTcNi2,35.2662,35.0003,-0.2659
InTeRh,36.9187,33.0858,-3.8329
NdYHoBiO7,11.2554,11.7172,0.4618
Pr2BrO2,7.5597,3.8296,-3.7301
Ba2CuSe2,15.8956,13.4223,-2.4733
Pr3(YRu)2,32.6824,28.2166,-4.4658
InTeRh,37.3545,33.0858,-4.2687
InGaSb,21.0627,20.0379,-1.0248
Zr2PF,51.0023,41.604,-9.3983
Mn2InAgTe4,52.1216,45.4057,-6.7159
NaHoSn4,22.4501,22.7462,0.2961
InGaSb,17.8718,20.0379,2.166
Na(NpSi)2,31.3347,31.5284,0.1937
CdGaSbRu2,23.0656,21.1486,-1.917
Rb3AgBr4,6.1777,5.7756,-0.4021
TlAsPdAu,27.424,30.4089,2.9849
CsRb2Ag,13.6072,12.4216,-1.1856
Rb4AgBr5,8.2546,7.7678,-0.4868
TlPdRu3,25.8269,27.4829,1.656
Nd3Tm7Sc2,25.1276,27.1927,2.0651
InTe2Rh,38.3714,33.7277,-4.6437
Ac2AlH6Pt,21.8839,20.8538,-1.0302
RbBaNa2Ga,13.8079,10.4522,-3.3557
Ag2P,22.3231,19.1057,-3.2174
BaMn2Al5,31.3246,25.7467,-5.5778
LaGdO,46.0358,43.1541,-2.8817
Sc2CdSn,15.8939,16.4608,0.5669
SrGa3Bi,18.9432,20.2219,1.2786
LaTlSnPd,37.6881,32.4783,-5.2098
Li2LaAu,24.747,21.31,-3.437
Mg3CuW,15.5238,14.2653,-1.2585
CaSb2Os,35.6634,31.4311,-4.2323
CaMg2TiH8,2.9305,3.1996,0.2691
Mg3CuW,16.0535,14.2653,-1.7881
Sb2TeIr,43.8245,41.0621,-2.7624
Sb2TeIr,43.947,41.0621,-2.8849
SbTe2IrPb,45.3318,42.5926,-2.7392
CuSbAs2Se,36.9006,32.1443,-4.7564
ZnCu(H3Ir)2,10.4346,10.0171,-0.4175
Mo2P2Os,20.4115,17.9503,-2.4612
Na2Cd4InSn3,20.7339,20.3906,-0.3433
P2BrCl,8.9156,8.1939,-0.7216
ScIn,1.78,4.2386,2.4586
NdTlZnPd,24.7921,27.211,2.4189
HoTmTlPd,31.3275,34.3378,3.0103
NbAl2Sb,43.4393,37.9525,-5.4867
NaPt2Se3,52.8983,39.5846,-13.3137
AgHgBr,14.1027,13.0694,-1.0333
YVTe2I,50.3737,42.9968,-7.3768
ScSb,0.4745,20.4257,19.9512
Tm2Cu2Si3,12.1503,11.7855,-0.3648
BaZrGe2H,24.2396,20.4474,-3.7922
Na3NbPb,54.8173,46.254,-8.5634
FeSnBi2,28.3456,31.5032,3.1576
MoP2Os,24.2605,23.6835,-0.577
Ti(TlPd)2,23.7907,25.6845,1.8938
Cs2AgSb,28.2223,25.0481,-3.1742
CrTc3I,63.5407,54.4584,-9.0823
Mg3Si4,7.152,5.1348,-2.0172
OsRuBr2,26.4353,26.2189,-0.2164
TaWSe2,43.4304,40.633,-2.7974
Mg6NbCu,23.0999,19.1035,-3.9964
TlIn2Ag,28.0306,28.0945,0.0639
OsRu2Br,27.6583,27.0453,-0.613
Lu4NiH2,15.7179,18.231,2.5131
Gd2ThCd,36.041,39.0128,2.9719
NaScCd2,16.8826,16.9238,0.0411
Os2RuBr,33.6267,35.0907,1.4639
YSc2Ag,0.0,0.0,0.0
Ca(CrH4)2,5.4865,4.6236,-0.8629
K(CdAu)2,26.6758,27.8321,1.1563
NaSc2Ta,72.504,61.3699,-11.1341
NaTaCd3,25.073,24.6158,-0.4572
NaTaCd,23.4089,26.1684,2.7595
Na3ScCd,20.4841,17.5236,-2.9605
CrAsPd2,8.5586,10.6149,2.0563
Er3ThAu4,42.1354,44.4875,2.352
SrTaGa2Si,43.8593,32.9844,-10.8748
Tl2SnPd,34.6805,33.8158,-0.8647
Pm3ZnCo,23.213,20.8442,-2.3688
P2WCl,65.5968,55.1115,-10.4852
Mg3Si4,7.045,5.1348,-1.9102
Mg3Si4,7.0568,5.1348,-1.9219
Mg3Si4,7.0517,5.1348,-1.9169
Ac3HPtPb,50.3071,48.9343,-1.3727
Sr2MgTlP,16.6476,17.5565,0.909
Tl2CdAu2,40.8803,42.2731,1.3928
RbCrTc3,61.0651,52.162,-8.9031
Np2Si3Ge2,21.8245,21.8555,0.031
ZrAlSe2,48.9611,40.7172,-8.2439
Ac2LuTh,57.304,60.8751,3.5712
NaTiSb2I,32.8568,26.8676,-5.9893
NaAcCdIr,37.8573,38.8897,1.0323
TlCd2Au,34.1485,35.2411,1.0926
TmLuTlPd,32.6371,35.6705,3.0333
Ac2LuTh,57.4669,60.8751,3.4082
Ti2H5,1.236,2.7791,1.5431
TlCd2Au,34.1535,35.2411,1.0876
TbZrSbH,35.8145,32.8802,-2.9342
Ac8Pt7,75.0698,63.1608,-11.9091
BaNa2Sc,11.8927,11.2984,-0.5944
Cs3Sr2I7,20.1353,20.8459,0.7106
GdTlAgPd,31.9072,32.5215,0.6143
NaIn2Sn,18.4716,18.3499,-0.1216
Y2MgNiN,68.5317,57.3316,-11.2001
Sc2HgPb,15.2308,17.4022,2.1715
PrHo2Pt,34.7761,30.3511,-4.425
NaTb2CrO5,1.6575,3.065,1.4074
GaNiW2,25.0077,27.5806,2.5729
NaIn2Sn,21.1725,18.3499,-2.8226
K2CaW,18.2912,18.4077,0.1165
TlMoPd2Au,34.0307,32.2603,-1.7704
LiTlAsPd,19.5437,21.2437,1.6999
YHfBr3,38.2343,29.4631,-8.7712
Mn(PdPt3)2,74.6479,53.2971,-21.3508
Tl(PbAu)2,46.8903,48.8231,1.9328
YHfBr2,44.9565,35.3941,-9.5624
MnAgIr2,54.5594,51.6652,-2.8942
TaTlNi,33.5057,34.855,1.3493
Ba2TlTePd,21.3731,21.8543,0.4812
Na3Pm(NdSe3)2,34.749,29.7612,-4.9878
Pr4ErHg2,0.0,0.6627,0.6627
Y2WBr,23.9783,17.761,-6.2173
BeZnSb2,30.6833,22.9174,-7.7659
TlInRh,39.8962,37.1768,-2.7194
PAuF2,13.3603,13.7177,0.3574
FeOs2W,94.1666,82.5235,-11.6431
K2SrBe,13.4252,9.9029,-3.5224
Cr2Ir2I,28.0291,26.694,-1.3351
Cs3Ba,18.3429,18.6958,0.3529
NaTeWI2,30.3988,29.4383,-0.9605
TmLu2Sc,25.7577,27.9116,2.154
AlPt3N,56.0777,40.0474,-16.0304
Y2WBr,29.7718,17.761,-12.0108
Li2LaOs,23.8147,20.9392,-2.8755
CsSc2Ag,17.0502,16.6954,-0.3549
CsCeAsCO7,3.2214,2.7974,-0.424
Cs2TmAsCO7,4.4072,4.7438,0.3366
Na2HfTe,55.3904,43.3789,-12.0115
IrPt2Br,59.6841,47.5224,-12.1617
TeCO2,29.1165,23.0966,-6.0199
IrPtBr2,41.3186,36.7016,-4.617
Ta2TlNi,34.4278,38.5006,4.0728
TlInRh,40.0372,37.1768,-2.8605
AcTh(AsPt)2,53.7036,45.9126,-7.791
TaAg2Se,37.274,32.6405,-4.6335
TaAg2Se,37.0648,32.6405,-4.4243
Ta2TlNi,34.2756,38.5006,4.225
DyHf2Sc,80.1208,60.6543,-19.4665
TlTe(PS4)2,46.7238,38.7372,-7.9866
CsNpPCO7,11.9167,10.0854,-1.8313
Cs2TbAsCO7,4.0791,3.7791,-0.3001
AcCo2Pt3,57.0743,43.7602,-13.3142
Y(BiS2)2,43.9764,36.8332,-7.1433
ReTeIr2,42.8391,45.2439,2.4047
CsScPCO7,29.7508,24.7102,-5.0405
CsScPCO7,29.7563,24.7102,-5.046
FeSn2Se,18.0925,18.6147,0.5223
YHo2(CrC2)2,53.9744,44.0875,-9.8869
ReTeIr2,42.7723,45.2439,2.4716
YPAu,21.3558,18.0267,-3.3291
Re2TeIr,42.0687,44.409,2.3403
DyZnPd,17.0335,19.5452,2.5118
PmNp2F11,8.1247,8.5171,0.3924
Ac4SnHPt2,51.0294,46.5416,-4.4878
Ac2H4Pt,30.9057,28.1639,-2.7418
ReTe2Ir,42.592,42.9105,0.3185
Mg6CoCu,11.5115,9.9944,-1.5171
LiTmThTa,33.7473,37.3817,3.6344
Y(GaRu)2,10.041,10.1314,0.0904
Pr3Sm,2.6945,5.3091,2.6146
Zr2AlSe,61.3628,51.867,-9.4959
DyErCdAu,30.2146,32.4694,2.2547
YPAu,39.4075,18.0267,-21.3808
YPAu2,41.2316,36.8182,-4.4134
TbTm2Au,33.5103,36.555,3.0447
Y6Ga2Ru,15.0236,15.074,0.0504
GeBi2C,46.1657,42.5983,-3.5674
YbEuN2,15.4491,18.1389,2.6899
Tm2Co2I,13.1911,18.2073,5.0163
CaHf2ScMo,71.3981,53.8445,-17.5537
Mg6CrCo,6.0688,5.25,-0.8188
TbTm2Au3,37.4215,39.9083,2.4869
MnIn2Cu,36.6492,32.9602,-3.689
CsMg6Cr,6.4937,6.8793,0.3856
AcH(PtAu)2,55.9355,47.37,-8.5655
Ir3SeI,41.791,40.9668,-0.8242
Ta2AgSe,38.4925,37.3056,-1.1869
NiPIrS2,41.2257,33.2137,-8.012
NiPSeS2,39.6704,31.411,-8.2594
RbInC,23.5426,22.0771,-1.4656
NaLiIn2Cu,15.2638,14.0047,-1.259
Li5TlPd,9.9873,11.2561,1.2688
IrPt2Br,59.7801,47.5224,-12.2577
Y(HfPt)2,86.8904,61.1843,-25.7061
GeBiC2,41.935,35.1483,-6.7867
ZrTlPd2,40.6351,38.8836,-1.7516
CsLaMg6,11.5951,10.1656,-1.4295
ThOsN3,29.1777,27.7533,-1.4245
CrNi2Pt,38.1984,31.1913,-7.0071
AcPHPt6,60.8697,42.7601,-18.1095
BaCu4Si,8.584,8.2038,-0.3802
ThCd4Pb,32.5786,33.8604,1.2818
ZrMn2W,75.1157,65.4137,-9.702
TcTeBr2,39.4756,35.9316,-3.544
Dy4TcPt,29.1799,27.624,-1.5558
Zr2AlGe2,44.4538,36.4326,-8.0212
FePN3,14.0999,13.3842,-0.7157
Ir2PtBr,48.8325,43.0925,-5.74
SrAc6Y,52.9568,53.8533,0.8965
Mg2PPb,12.4129,15.1719,2.7589
CsInGa2Tc,30.7103,28.8363,-1.874
Tc2Te2Br,51.7052,46.2295,-5.4756
Ba(ZrGe)2,36.694,31.3947,-5.2993
SiTc2Cl,51.2614,44.2565,-7.0049
Hf4TcHg,111.0076,82.6734,-28.3342
Hf4TlTc,119.603,91.1872,-28.4157
GdZnSi3,16.6221,13.6408,-2.9814
Dy2Er3Cd2,25.74,27.5535,1.8135
Rb3Sr2Cl6,9.408,9.3872,-0.0208
CuSbRh3,40.8749,29.8877,-10.9872
Ag2IrPt,49.1562,40.5508,-8.6055
Nb3Tl3Pd2,76.7332,67.7128,-9.0204
Li4TmIn,9.4013,10.0341,0.6328
Gd2ThPb,44.0905,47.2947,3.2042
Cr2Ni2Pt,33.8507,28.5524,-5.2983
Na3Bi2PbSe6,43.0467,36.9328,-6.1139
Th2CdPb,51.0868,54.6575,3.5708
Tc2TeBr,60.4548,53.1154,-7.3394
BaSm2Cu,14.9875,16.8815,1.8939
Ac(HPt2)2,54.7055,39.2691,-15.4364
YReBr2,19.4872,20.6149,1.1277
TiTl3Pd,35.7984,36.8388,1.0404
TcTeBr2,39.699,35.9316,-3.7674
Sr2Y2Pb2S,32.4645,28.9153,-3.5492
KHfB,48.3203,35.6273,-12.6931
Tc2TeBr,60.038,53.1154,-6.9226
Sr2Ge3Au5,28.9039,29.7463,0.8423
LiIr2I,23.3865,26.4183,3.0318
Tl2AgPt,55.7587,47.2954,-8.4634
SrYPb3,39.3899,38.9453,-0.4446
Mg6NbSb,25.304,21.4867,-3.8172
BaTa2Se,30.4744,31.3075,0.8331
SrYPb2,34.9006,35.3329,0.4322
HfTa4Tc,63.7851,58.1392,-5.6459
SrReWC,49.1625,37.8352,-11.3272
Y2CrO,49.3584,40.3879,-8.9705
LiIr2Au,28.6144,37.0957,8.4814
FeP2SI,33.6124,29.8056,-3.8068
La4AgBr,41.7938,28.6016,-13.1921
Mg(TlPd2)6,27.2188,28.2546,1.0359
Ba2Na2Sr5Ca,11.2663,10.7818,-0.4845
Pr3SnH3C,9.2506,7.6781,-1.5725
Tm10Sb2HPt4,43.3573,36.4547,-6.9025
LiSb3Pd,31.4297,25.1092,-6.3205
BaNaSrCa,12.5304,10.5674,-1.963
VP2SI,45.6077,38.6931,-6.9147
ZrTlPd3,41.2465,38.0355,-3.211
CaOsPb,34.3471,37.0346,2.6875
NaZnSb2I,29.1092,24.102,-5.0072
Tl2BiPd,40.2453,42.2641,2.0187
HgAsPt2,47.4176,33.6114,-13.8062
Sr4ErH10,5.0858,6.9455,1.8596
CaOsPb,33.5283,37.0346,3.5062
Ac6OsPt2Br3,53.0885,50.4326,-2.6559
P(SeS2)2,47.4283,37.5419,-9.8864
Tl3CuPd6,22.2328,24.538,2.3052
Nb2GaF11,19.3849,16.0056,-3.3793
CaOs2Pb,36.3443,39.3656,3.0213
K4Ba2Ag,11.5661,10.0395,-1.5267
HfFe2F11,9.6854,6.0414,-3.644
Tl2NiSb,42.9502,39.8221,-3.1281
LiCaOs2,23.4816,26.0984,2.6168
LiCaOs,16.5178,18.5724,2.0545
CeMg6Ti,7.1774,7.2462,0.0688
Li4Tl3Pd,21.3098,22.3852,1.0754
LiCaOs2,22.6676,26.0984,3.4307
Lu2SbPd,32.201,31.7603,-0.4406
SnOsPb3,45.7865,46.5664,0.7799
LuSbAu,41.3607,39.8867,-1.474
CaInOs2,22.4438,27.9986,5.5548
CaOs2Pb,35.9587,39.3656,3.4069
BaAl6Ir,11.9085,11.5801,-0.3284
TlTePd2,19.3585,22.5738,3.2153
NaCd(SnTe2)2,31.3398,29.8081,-1.5316
Nb(HgI4)2,29.2453,27.6879,-1.5574
YCr3Si2,25.4494,19.7753,-5.6741
Ba2LaO4,14.176,13.5078,-0.6682
Mg6ZnSn,5.7627,6.4424,0.6797
Ca2YSi,24.8166,22.3723,-2.4442
SrTe2Ir,39.7116,35.5918,-4.1198
CSeO,31.5041,23.1028,-8.4013
TlTePd,32.8572,34.5537,1.6965
SbTe2WAu,43.7092,41.2229,-2.4863
PaZnFeSn,33.0662,31.919,-1.1472
YSiO,25.98,23.4315,-2.5485
PaFe4Sn,32.919,26.6913,-6.2276
BaPtBr2,28.7198,21.6187,-7.1011
ZnGaF,4.4926,6.4717,1.9791
CrCuAu2,28.8372,29.1972,0.36
NaCdAsOs2,29.8698,29.9508,0.081
Cs2Sn2Pt3,50.8856,39.2485,-11.6371
Li2AuBr,23.5846,22.5809,-1.0037
Hf4TiGa3,75.3286,55.7217,-19.6069
Co2OsBr,23.2762,22.2859,-0.9903
NaPbW2,34.1965,38.3454,4.1488
BeBiC2,40.0411,34.7629,-5.2782
Li2LaTl,25.753,22.2282,-3.5248
Ba2EuZn,8.9731,10.3086,1.3355
YGaRu,11.5324,12.5753,1.0429
PrInPt2,47.7959,34.6042,-13.1917
EuZn,0.0,4.1154,4.1154
EuPt3,73.625,52.1296,-21.4954
CoOs2Br,32.5589,31.6444,-0.9145
LiAuBr,31.9799,30.7457,-1.2342
KOsF6,11.5272,12.4174,0.8902
BaNb3Al,94.215,75.3966,-18.8184
Cs3AgOs,30.5318,29.5491,-0.9827
LaCo2Br,24.764,19.4259,-5.3382
Pr2RuO,31.0277,27.8485,-3.1792
LiAu2Br,35.8883,34.6125,-1.2758
Tm2SiPb,31.7374,32.794,1.0566
TlBiPd2,35.1153,37.2026,2.0873
LiAuBr2,26.6801,25.8517,-0.8284
Zn2HgPt,25.9543,19.2908,-6.6636
Dy2Si4Ru5,22.9326,18.1014,-4.8312
BaPt2Br,48.379,33.4111,-14.9679
LiDyIn3,15.0475,16.0121,0.9646
LiAu2Br,35.569,34.6125,-0.9565
LaTm4Tc,27.8386,28.8987,1.0601
LiThPb,30.1057,34.9302,4.8244
YSi2,27.8925,24.0184,-3.8741
TlGePd2,19.406,23.0491,3.6431
NaSm(SnSe2)2,34.4902,29.7687,-4.7215
Na(Y2S3)2,29.6624,22.9642,-6.6981
AsPAuC,39.4143,30.2499,-9.1644
YCr3,22.649,18.6002,-4.0487
CsPCBr,22.3137,17.3781,-4.9356
PtWBr2,39.8456,33.5385,-6.3071
LiThPb,30.1331,34.9302,4.7971
Tc2PPd2,37.6183,35.3042,-2.3141
AcP2(HPt3)2,54.8156,38.9789,-15.8367
NbNi7,23.0241,21.9058,-1.1184
YCr,53.1587,11.7944,-41.3643
SrReN3,54.0212,51.7512,-2.2699
TlMoPOsRu,24.7587,25.8451,1.0864
PtWBr2,40.3141,33.5385,-6.7756
Sr6FeBi2,25.9155,25.0484,-0.8671
Sr2FeSn2,18.5214,17.6171,-0.9042
InRhW,35.9609,34.1586,-1.8023
CaY(TmHg2)2,11.1405,11.2422,0.1017
NdSm4Tc,30.7057,31.0837,0.3781
MnFeSe2,52.0969,41.9022,-10.1947
InBiTe2,39.4539,39.4657,0.0119
BaTh2Br11,12.8325,14.2704,1.4379
Mn3FeSe,72.5141,58.2613,-14.2529
CsNp2Br11,15.287,16.7794,1.4924
Pa2CdI11,24.8442,25.5175,0.6733
Hf2TiRh,84.9515,62.7472,-22.2043
Fe2Si4Ni,22.3529,14.5567,-7.7962
InRe2Mo,32.2638,33.9279,1.6641
Tl2CdMo,34.634,35.9989,1.3649
PtW2Br,46.0751,41.3678,-4.7072
TlTc2Mo,63.4237,58.7783,-4.6453
TlPd3Au4,36.6408,38.2438,1.603
Tl(InPd)2,20.9117,23.3419,2.4302
Rb2MnSb2,39.1179,30.6329,-8.485
TlIn2Pd,26.8651,28.7467,1.8815
SiNiAu2,29.0419,28.9838,-0.0581
BePC,17.0448,14.2541,-2.7907
HfPaCd4,48.1296,42.6045,-5.5252
InRhW2,36.7263,36.9389,0.2126
Tl2FePd,30.1841,32.0566,1.8724
NaBiSb,38.0218,34.3855,-3.6363
TcRu2W,60.4777,50.3707,-10.107
Ni2PtCl,26.7735,21.0152,-5.7583
ZnI2Br,16.6312,17.0492,0.418
AuSe3I,44.083,38.0163,-6.0667
TaCu2Mo,29.2709,25.2237,-4.0472
TbSm2YHg4,15.2977,14.9972,-0.3006
Pa2AgF11,9.3018,9.7452,0.4434
Ce2CuSi4Ir3,24.1523,22.895,-1.2573
Li4Mg5,1.597,2.5663,0.9693
Li2MgAs,5.2673,4.5925,-0.6747
Sc2Fe,24.2618,24.7071,0.4453
Re2TeAs,33.4355,37.3063,3.8709
Y3AlO,28.1793,26.7017,-1.4776
Zr2TlC,76.3775,62.5345,-13.843
SiBi2AuI,39.3564,38.4793,-0.8771
SiBRu3,20.6953,16.5613,-4.134
NaYTiI2,32.2409,26.416,-5.8249
Tl(PdSe)3,31.1174,27.8057,-3.3118
Zr3TlC,81.7556,65.035,-16.7207
Cr2(ReMo2)3,14.08,14.966,0.8859
ZrTlPd,55.3469,50.2251,-5.1218
ReSnTe2,31.7122,32.9813,1.2691
Co2OsAu,26.7205,29.2587,2.5383
Ta2MnAu,55.2367,54.0297,-1.207
Ta3MnAu,53.266,51.1836,-2.0825
Na2AgRuF6,13.6189,11.8704,-1.7486
La2TlPd,37.909,32.2966,-5.6124
Y2Al,15.2508,13.4076,-1.8432
NiPbSe3,40.6575,35.0712,-5.5863
CuTeOs2,27.3483,30.549,3.2007
InRhW2,36.6251,36.9389,0.3138