Formula,E_hull_DFT (eV/atom),E_hull_ML (eV/atom),Delta (ML - DFT)
LiHfSi,47.3063,34.7455,-12.5607
LaPm2Zn,27.1832,24.3009,-2.8823
Cs(TaSe3)2,42.2699,36.3009,-5.969
CaAcPtRh,51.3295,42.4693,-8.8602
CoCuHg2Au,25.2673,21.1231,-4.1442
YB6C7,60.7392,45.531,-15.2082
NaAc2ScO5,35.8568,34.7238,-1.133
Tc2BPb,60.7823,53.989,-6.7933
CsZnIO2,37.1967,29.3884,-7.8082
P2Au,13.5526,18.4372,4.8846
Tb2YHg4,14.7148,13.6604,-1.0544
YSb2Ru,34.3019,22.3138,-11.9882
Ba2TbThAs4,15.8291,17.7747,1.9456
Be2HgPb,13.5453,15.353,1.8078
Zn3CdH8,4.099,4.6712,0.5722
Te2H6W3S4,28.8476,25.6701,-3.1775
Y(BiAu)2,43.3208,44.9745,1.6537
AcAs2Pd2Pb,28.0685,30.15,2.0815
Sc2WAu,24.1791,27.2557,3.0766
Nd3Te2Pb,33.9401,34.7279,0.7877
Ga3SnC,23.0951,19.186,-3.9092
Li2SiSb2,21.6735,17.3694,-4.3042
PmPrLu4,25.9738,27.857,1.8832
Sc2WAu,24.0929,27.2557,3.1628
ZrRe2P,65.4403,56.8831,-8.5572
MgUCo,18.4076,20.3581,1.9505
ZrReP,45.2711,39.3028,-5.9683
Zr(ReP)2,68.8771,55.8385,-13.0385
Tl(SbBr3)2,29.7156,27.3364,-2.3792
LiSi2Se,25.082,19.0679,-6.014
LiInSi,15.3638,15.3387,-0.0251
Tl2AgSb,44.5736,40.8472,-3.7263
Tb2PmAu2,29.0441,32.5748,3.5307
Te(PbAu)2,44.7692,46.0413,1.2721
KLiSi2,16.3018,12.9562,-3.3456
LiHfSiRu,50.0956,38.3275,-11.7681
TlAg2Sb,39.7576,33.8446,-5.9131
Cs(LiSi)2,16.7514,15.2771,-1.4744
Y3HoTl2S,36.5319,35.8895,-0.6424
Ac4Y3HoBi8,46.882,48.5112,1.6292
Cs2Rb2Cd,13.3569,13.5544,0.1975
Ba2TcPb,36.8799,33.3523,-3.5276
YAl(BN)6,15.3298,12.6688,-2.6611
Ca2ScTc,65.1608,54.8177,-10.3431
BeCrTe2,23.5269,22.7932,-0.7337
SmZn5H6,5.6461,6.3067,0.6605
ZrSc3Sb,33.6743,28.1604,-5.5139
AgAuSe2,40.7747,35.3116,-5.4632
AcLuCdPt,51.1181,46.4524,-4.6657
CoCuP2,16.1997,13.2892,-2.9105
Ca2ReTe,23.3725,24.5387,1.1662
Co2PbW,29.8001,29.9359,0.1357
LiAcY2,23.4298,25.7635,2.3337
LiTa2Si,27.3999,28.7733,1.3734
Pa8SnOs6,53.788,56.5236,2.7356
LiAc2Y,35.9796,38.1812,2.2016
LiRe2Si,29.3583,30.2818,0.9234
AcLuCuPt,47.984,43.113,-4.871
Sc2WAu,24.0123,27.2557,3.2434
Zr5Sc4,49.3461,41.6435,-7.7025
Ca6CdPt2,21.4084,16.7762,-4.6323
ThTi2,25.5587,29.218,3.6593
CsLiSi,17.5,15.542,-1.958
Ca6InCu2,5.851,6.1068,0.2557
Ti2Bi2Te,26.6591,28.9536,2.2945
LiCaTaSi,14.7606,15.7897,1.0291
LiZnIn2,13.0714,13.5206,0.4492
BaPrF5,1.9669,3.9546,1.9877
AcLuHgIr,34.8727,37.94,3.0673
Nb(AgBr3)2,29.8385,26.5873,-3.2512
Ca(YC)2,39.347,30.1522,-9.1949
Sm5YSb5,32.0411,28.6367,-3.4044
CuIr2Ru,31.8904,32.0054,0.115
Cd(SnBr3)2,13.6788,14.3855,0.7068
Na3NbTe4,47.3722,42.1474,-5.2248
CaY2(TlAg)2,30.7987,27.967,-2.8317
Li2RhSe,24.1804,19.2263,-4.954
IrSe3,47.3932,42.1528,-5.2404
Sr(Zr2V)2,96.3938,77.6982,-18.6956
YAlPt,55.5353,40.3918,-15.1435
Rb2AsI6O,29.8746,26.7229,-3.1517
Pr6C2N,15.5178,11.8663,-3.6514
YTlSbRu2,32.8202,28.8472,-3.973
K2CeMg3F12,12.0719,12.1413,0.0694
LaPr3(YAs3)2,9.688,9.7333,0.0453
PaCr2Tc,44.6865,41.9534,-2.7332
K2Li3OsF12,7.7727,9.39,1.6173
Pm(TmTl)2,33.328,36.7864,3.4584
Li2Y(InAg)2,17.9161,15.2865,-2.6296
SrBeMo3,19.1967,16.4618,-2.7349
PaCrTc,56.8661,52.5293,-4.3367
SrGaTc3,62.8941,51.9773,-10.9168
Ti2AgSb,21.4667,19.0567,-2.4099
NaIn2CoSb,23.9989,20.8359,-3.163
Nb4VMo,118.3909,98.5542,-19.8367
Pm(SmPb)2,31.3541,34.4173,3.0632
Zr4TaBe,74.2794,62.442,-11.8374
Re2SiAu,35.8148,37.1438,1.329
Ho(TmCd2)2,23.6209,24.8387,1.2178
Ca2BSbN,14.3148,11.3019,-3.0129
CuNi3,6.4413,9.5371,3.0957
Pm5(NdBi2)2,35.3851,37.1201,1.7351
ZrCd2Fe,34.3316,31.4624,-2.8691
Y6Tl2Tc,46.0741,43.0761,-2.998
CeGdNi2,21.8582,21.8751,0.0169
PmNdBi,29.55,33.434,3.884
Y2GaTe,14.0652,17.363,3.2977
FePbBr2,26.6071,23.2982,-3.3088
Pr5HfSi4,17.5427,11.8955,-5.6472
LuAgAu,36.7624,36.075,-0.6874
CsBeSb,13.4544,14.9095,1.4551
Be2ZnSb,19.4497,13.3477,-6.102
Y2GaRh3,30.0787,24.0275,-6.0512
LiZr2In,55.3621,46.5185,-8.8436
BeZn2Sb,21.2377,15.0205,-6.2172
ZrTaBe2,39.4897,34.9036,-4.5861
MnBI2N,31.6565,26.3599,-5.2966
KSiAu,21.1395,20.4547,-0.6848
BPb2N,28.2367,30.0513,1.8145
Zn2FeSi,14.6091,13.2293,-1.3798
BeZnSb2,30.4478,21.8556,-8.5921
NaOsRh2,41.7184,34.6421,-7.0763
RbYAgTe2,21.3051,20.8894,-0.4157
Eu2Si2Rh2C,35.8658,28.1674,-7.6984
LiTeIr2,27.1051,30.6521,3.547
NaOsRh,33.4397,29.8754,-3.5643
Rb2Ca2Ru,23.6148,20.1176,-3.4971
Mn2BiTe,68.1464,57.0077,-11.1387
CeYBiAs,24.7115,28.2492,3.5377
NaCuAgSb,26.8922,21.9183,-4.974
ZnHgSb2,24.5335,20.1542,-4.3792
CdIn2Ru,19.0428,21.034,1.9912
CaYC3,49.2964,35.5368,-13.7596
TcSb2C,55.7984,43.3441,-12.4543
Yb(Al2V)2,43.2782,36.7765,-6.5017
Zn2HgSb,15.1221,13.3989,-1.7231
Rb(TlIn)3,28.4566,29.4332,0.9766
CaYC2,45.0371,34.0923,-10.9448
ZnBTe2N,30.0155,26.3301,-3.6854
NaPr2Al,5.0275,5.386,0.3585
SiBPN4,8.9008,5.8323,-3.0685
SrSc2Be,10.78,8.9959,-1.7841
GaSe2N,27.0214,23.3716,-3.6498
Re3(Mo3W)2,18.9526,21.68,2.7273
SrYPd2,24.7502,22.4549,-2.2953
ReNiIr2,45.4892,44.7024,-0.7868
Na2Tl(SbPd)2,32.7721,28.4545,-4.3176
LaSb3,41.0871,30.867,-10.2201
SrScBe2,12.3741,8.6045,-3.7696
Ca2Y2C,32.2618,24.4241,-7.8377
Zr3(H3C)2,37.8499,30.4216,-7.4283
YZrSc2,30.6236,28.6911,-1.9325
NdSb3,34.5162,29.117,-5.3992
YNbIr3,59.2179,55.0997,-4.1182
Si2AgRu2,16.8618,12.7918,-4.0699
Sr2ScBe,13.1539,10.8749,-2.279
Ca2YC2,37.3745,28.341,-9.0334
SiHg2,5.211,3.4453,-1.7657
Be2IrI,27.0499,28.7713,1.7214
Ac6Ge2C,46.3674,46.43,0.0626
RbY(BC)6,56.0873,42.7047,-13.3826
CsPrZnO3,12.8446,8.0965,-4.7482
ZnGa3Ru,10.6919,11.2816,0.5897
GaBiRu3,24.1495,25.7483,1.5988
Ho3TmCd4,20.6727,23.2213,2.5486
U6Ga2C,45.0039,46.8584,1.8545
Ac3(AlPt)4,50.259,41.7507,-8.5083
Y3SiC,42.3998,33.7856,-8.6142
LaTi3Pb,24.9756,22.7991,-2.1765
Ag5PtAu2,39.2233,32.2309,-6.9924
PrTlRu,27.9422,30.5436,2.6014
CuBS2N,33.0139,23.3908,-9.6231
Ag(PtAu)2,61.2315,49.403,-11.8285
Ag7Pt3Au,48.7541,36.1782,-12.5759
Li2TaPb,22.9878,22.9812,-0.0066
LiY(ScHg2)2,8.2616,7.5051,-0.7565
TiSi2BN,8.6416,6.7126,-1.929
Li2CeScIn4,16.0037,15.1339,-0.8698
VIr4Ru,55.7637,51.6967,-4.0671
Na2Mo2Ir,24.0126,20.6803,-3.3323
BeAg2As,22.3119,16.4483,-5.8636
CaC2,42.5082,29.0148,-13.4934
VRuRh4,64.0359,47.8423,-16.1937
Rb2TlI7,20.9646,21.1978,0.2331
Ac2Pr2Nd,28.8598,31.2996,2.4398
Pr5Er4Sc,10.0462,12.6058,2.5596
LaTeRh,47.0727,36.6969,-10.3757
NaPrNd,14.9276,15.2797,0.3521
ZrFeIr,47.0234,44.5317,-2.4917
Pr2NdHo2,14.3426,17.4724,3.1299
Cs2GeC,31.2944,26.3031,-4.9914
TaFeSe2,33.3586,30.6002,-2.7584
Na2RuPbO5,10.3172,10.7761,0.4589
HoZr2Tl,68.9932,62.114,-6.8792
PaVSe4,63.8202,53.4302,-10.39
Th6Sb2As3Pb,46.3672,46.8755,0.5083
ErVFeGe3,24.6955,22.7477,-1.9478
RbBaI2,10.6758,11.5208,0.8449
BaSrLa,21.8869,17.3346,-4.5523
Pr2NdTl2,19.3796,22.2429,2.8634
ZrTlRe2Au,57.5093,55.2831,-2.2262
Li2TaTl,22.9053,24.3533,1.4481
Y2TeC,34.1347,30.5899,-3.5448
Ba3HfGe,31.2263,22.935,-8.2914
YCu(BC)6,56.4949,42.9191,-13.5758
ZnSn2Bi,22.9545,25.5361,2.5815
Tl2GeIr2,34.847,37.7324,2.8854
TiBiTe3,38.1337,36.6222,-1.5115
TmAl2Pd9,15.6768,17.6245,1.9477
AcAlInPt,43.4865,38.9211,-4.5654
YZr3Al8,32.2593,27.4546,-4.8047
Cd2AsPb,22.8473,25.3336,2.4863
Na2Pd2PtSe6,41.6655,33.1842,-8.4812
TiI2,16.3708,19.2674,2.8967
Li2TcAg,31.4405,26.9127,-4.5279
K2RhW,29.5083,25.713,-3.7953
YHoCo2,26.102,23.9774,-2.1246
LiYHoCo,31.343,27.7644,-3.5787
CdFeGe3,10.7229,11.7188,0.9959
Ce(NdHg3)2,7.6357,9.1283,1.4925
TaBeV,72.9404,58.8607,-14.0797
In2AuC,38.0096,33.671,-4.3386
YHo3Co2,25.4532,24.3215,-1.1317
YTe2C,49.8678,42.4946,-7.3732
Li2TcRu,27.9992,25.3302,-2.6691
Rb2Ag2Pd,16.8431,14.2329,-2.6102
NiSb,9.8603,7.7355,-2.1248
NiSb,0.0,7.7355,7.7355
YTe2Rh,36.3852,32.7684,-3.6168
SmY(MgCd2)2,15.2705,16.628,1.3575
TbPuSnPb,42.6531,45.2666,2.6135
LuScVRh,53.806,45.1229,-8.6831
Pa2TlNiO8,14.9221,17.0722,2.1501
Rb(BaSn)2,8.5435,9.3784,0.8349
Tb2CeNd6,25.1876,28.1227,2.9351
CePdRh,23.0421,22.1444,-0.8977
Ba2Sr2I,7.6134,8.8951,1.2817
Li2CdTc,28.448,25.2268,-3.2213
Cs3(NaBi2)2,37.5021,36.9534,-0.5487
Sm6Te2Ru,27.0968,28.261,1.1642
NaThAsSe,50.7014,48.8507,-1.8507
Rb2Sn2Pd,14.6493,13.7266,-0.9227
Fe(NiAg)2,33.409,25.535,-7.8739
BeAlSe,20.5114,15.4375,-5.0739
ZrFeTc2,71.0421,60.7635,-10.2786
FeNi3Ag,28.6394,22.2069,-6.4325
Rb2Bi2Pt,40.2044,35.6101,-4.5943
Ce(SmDy3)2,22.1138,25.1805,3.0667
KC2Br,35.5158,25.3644,-10.1514
ZrFeTc2,71.0289,60.7635,-10.2654
ZrFeTc2,70.9395,60.7635,-10.176
TbPm6,20.797,23.3053,2.5084
NaNbBiPt2,81.2718,63.9002,-17.3715
CsGaO2,25.551,18.81,-6.741
Y2TeRh,28.9905,26.2528,-2.7377
Ta2FeSe,30.4069,31.6838,1.2769
LiAc(AlPt2)2,54.0711,40.9918,-13.0792
Y2TeRh,28.7455,26.2528,-2.4927
GaBiRu2W,44.1467,36.9249,-7.2218
Ta2SiSbN,27.4601,25.8625,-1.5976
Ce(Sm3Hg)2,19.2113,21.2327,2.0214
ZrFeTe,46.7235,41.4786,-5.245
ZrFeTe2,45.9563,41.7131,-4.2432
YSc2Pb,18.8758,21.9578,3.082
PdRu3Au,24.6872,26.0859,1.3987
Rb2MnRuBr6,27.2356,23.1773,-4.0583
Tb6CeEr2,22.3419,25.8556,3.5137
NiBMo2,19.2762,20.8583,1.5821
LiAc2Nd,38.6001,40.751,2.1508
Tb2CeTh6,46.4293,50.8704,4.4411
Tb6CeTh2,30.0809,33.8309,3.75
NaAlS2,30.5139,23.689,-6.8249
ZrFeTe2,45.2284,41.7131,-3.5153
NaTa3Mo,32.5138,33.8171,1.3032
TaSeN3,18.9555,18.151,-0.8045
Ta2MoIr,35.7097,38.3139,2.6042
NaTa3Mo,31.4207,33.8171,2.3963
Na(TaIr)2,27.927,33.6732,5.7463
NaTaMo2,16.9328,21.6896,4.7569
YHo2PaCo2,30.9095,30.65,-0.2595
Rb2Zr2V,62.1628,49.3867,-12.7762
Na3(CoSi)4,14.1371,11.2844,-2.8527
Th4SbAs2,39.018,41.7785,2.7605
EuErSi,25.5335,25.0966,-0.437
Ce2GaN,7.269,12.924,5.6551
ScS2,51.0281,43.9507,-7.0774
Sc2BPb,15.7652,19.6736,3.9084
Be2InMo,13.377,11.8459,-1.531
BeInMo2,18.0895,16.1146,-1.9749
Li2TcOs,34.1208,31.8091,-2.3117
I3Br,19.392,19.8897,0.4978
In2SiPt,36.1079,28.6512,-7.4567
Rb2SnBi2,23.7767,25.2004,1.4237
BeInMo2,17.8557,16.1146,-1.7411
TmFeSb,38.1233,34.4388,-3.6845
CeInPb,32.1788,34.252,2.0733
Na2TaSe5,40.2542,33.8983,-6.3559
La(Sb2Ru3)2,29.5859,26.1622,-3.4237
La2Pm3Zn2,27.4404,24.2934,-3.147
BeIn2Mo,17.4415,16.5033,-0.9382
NaAgSnTe3,30.2914,27.6422,-2.6492
Li2TcIr,34.4392,32.3079,-2.1312
Ce6ThPa2,39.0165,42.4449,3.4284
Ca2PtF,26.21,20.0942,-6.1157
AsCSe2O,46.8366,37.7887,-9.0479
CsLiOs,18.4673,21.4593,2.992
BaSrLa2,29.4087,22.1067,-7.302
Tb5Nd4,25.7486,27.8056,2.057
C2Se,51.1229,40.0262,-11.0967
Nb3Al2N,46.176,39.2047,-6.9714
BaLaI2,23.4105,20.0102,-3.4003
MnMo3Br,32.8073,29.6233,-3.184
CaTb2PmTl4,35.4091,37.4084,1.9993
Cs2(NaHg2)3,10.7475,9.4501,-1.2974
Th2In3Ru,28.7557,33.0697,4.314
Ac3(LaZn)2,44.5369,41.2312,-3.3057
KMg2H8Se,7.4695,6.3271,-1.1424
TaAlCd2,19.8032,22.2742,2.471
ZrSc2SiBr,41.7441,34.093,-7.6511
La2Nd3Zn2,27.3823,24.2489,-3.1334
NiOsRh2,29.9429,28.1625,-1.7804
YB6C6F,56.5373,42.8943,-13.643
ZnInGa,5.3033,11.9316,6.6283
AlOsPt2,49.4441,40.1603,-9.2838
CsScNb3,92.8268,76.955,-15.8718
Cs2RbHg2,9.7716,9.9605,0.1889
TiNbNi4,30.8977,27.7213,-3.1764
RbSiSb,16.8365,12.7341,-4.1025
Rb(InSn)2,13.3986,14.9836,1.585
KPtBr,29.2537,21.4012,-7.8525
NaY(BC)6,57.5283,43.6836,-13.8447
RbNaSr2Ag,16.9988,14.4498,-2.5491
Ac2Sm(BrN)2,24.2383,25.7666,1.5283
LiY4Ag5,20.9639,18.3073,-2.6566
As2PbBr,28.3398,26.225,-2.1148
TaCoSe2,55.9952,42.2193,-13.7758
Rb(InPt)2,39.6762,30.5383,-9.1379
PtBr5,26.0321,21.8778,-4.1543
Ca(Ac3Tb)2,49.9789,51.0301,1.0512
V6Sb2Ru,97.6939,76.6087,-21.0852
PtBr,52.7448,38.4245,-14.3202
Zr(AlAu)2,34.2889,33.9153,-0.3736
AlOs2Pt,44.096,40.8059,-3.2902
ZnNi3,1.6654,5.7574,4.092
NaPrSm2,17.7224,17.9549,0.2325
Na2ScPaO5,39.76,35.3144,-4.4456
PtBr2,35.9901,29.7991,-6.191
KBaV,47.9684,37.8517,-10.1167
TbMnNb,81.6477,68.1238,-13.5239
Os2PbCl,36.4407,38.6094,2.1687
PrBr,0.0,1.7467,1.7467
BeAlP,24.1616,18.753,-5.4086
Ag2SbRh,35.356,29.918,-5.438
Rb(TlIn)2,28.5787,29.1426,0.5639
Ba2ScMnBe,24.3917,18.2741,-6.1176
NpIn2Fe,23.724,24.9125,1.1886
PmY2(ThTe2)3,40.7881,40.8319,0.0438
BaLi3Re,18.5805,13.8883,-4.6923
V3CdSn,86.6435,68.7911,-17.8523
AcSi2Pt4Rh,62.1042,45.1743,-16.9299
NaNbTe2,57.7186,51.0672,-6.6514
SmLuAg2,29.9979,27.8544,-2.1435
Rb2PtSe2,33.2063,25.2405,-7.9659
ErTh2ZrSc4,35.0721,35.222,0.1498
KZn2,7.9335,8.9251,0.9915
YAg2Rh,31.2326,24.5968,-6.6357
PaZn2Pb,33.8332,35.7866,1.9533
Ag2AuSe,39.6908,34.1628,-5.528
BaNbGaO4,29.874,24.2245,-5.6495
AcPrSb,34.2812,32.8784,-1.4028
Rb2NiAg,10.9707,9.0282,-1.9425
SrUGe3,16.3674,18.9413,2.5739
Os2CO,28.359,28.1225,-0.2365
BaYHg4,18.1792,15.2663,-2.9129
Rb2Sc2Ag,7.4574,6.9734,-0.4839
K(TcMo)2,38.3413,36.2201,-2.1212
K3Zn,11.0631,10.4474,-0.6158
VMoBr2,42.3993,36.4998,-5.8995
NbCr3Sb,43.9752,35.7864,-8.1888
YNb2Te,85.1233,73.0254,-12.0979
KTc3Mo,64.2948,54.3013,-9.9935
Rb2AsCl6O,11.3538,10.3846,-0.9691
LiThRu4,21.8617,24.8768,3.0151
SnGeSe4,32.8342,29.0205,-3.8138
KTcMo2,35.7597,32.7087,-3.051
TlIn3(Te4Pb)2,39.2676,38.1728,-1.0948
Ta3FeSb,41.3651,39.3709,-1.9942
MnZn2Cd,33.6215,28.5773,-5.0442
Si(AgPb)2,33.3396,29.9094,-3.4302
Ac4PtSe2N,54.2005,51.1532,-3.0473
CoRuBr,20.1736,17.36,-2.8136
PmGa2Pb,23.1322,24.8783,1.746
NaHfOs2I,56.6071,47.4539,-9.1532
FePbI2,27.3093,26.4197,-0.8896
Na3(TlIn3)2,26.7782,25.8504,-0.9278
Ta2CrNi2,30.1662,26.3053,-3.861
CaCo5H12,4.3054,3.9393,-0.366
Na(ZrTc)2,73.9953,62.0325,-11.9628
GdYCu4,20.1561,18.6396,-1.5165
Sc13In2,7.6065,8.5118,0.9053
Na3(Tl3Sn)2,35.7584,35.2564,-0.502
ZrReAu,62.0865,59.3782,-2.7083
La3Y(TmAs3)2,22.6762,20.1391,-2.5371
Re2AgAs,30.786,32.3463,1.5603
La5HIrAu2,37.9102,30.0116,-7.8987
BeAl2P,30.0656,21.7532,-8.3124
LaPrBr,20.218,14.8031,-5.4149
Zr2ReAu,71.1001,64.8587,-6.2414
LaPrBr2,17.4003,13.3368,-4.0636
ZrRe2Au,56.4036,55.2839,-1.1196
ZnCu2Si,10.0497,10.0859,0.0362
Hf2InBiN,73.988,56.9622,-17.0258
BaSrTa,28.7444,21.9182,-6.8262
YHfInAg,53.1483,41.1609,-11.9874
La3(PmZn)2,31.2968,25.4526,-5.8442
ScTlSn,22.399,21.7491,-0.6498
Tb3Sm(Y3Th)2,26.6956,28.502,1.8065
Ba(PbCl3)2,12.9552,14.1449,1.1896
Ce5O4,13.2268,13.615,0.3882
Tl2Ge4Au5,34.1478,35.0295,0.8817
CrCuNi,21.5108,21.2197,-0.2912
MgH6PdPt2,22.8748,17.5911,-5.2837
Mg2CrH8Pd,6.0016,5.8518,-0.1497
Tc4IrBr,72.0159,61.5329,-10.483
Ca(LaAg3)2,32.6577,24.0345,-8.6232
Ac2AsPPt6,70.5188,53.4583,-17.0605
AcSn2Pt,31.8893,29.7136,-2.1756
Tl3ZnIr,44.9816,42.609,-2.3727
Ba2BeNbO6,13.5181,12.7439,-0.7743
Cu2S3,32.6902,24.5769,-8.1133
NaHfCd2,51.7431,40.4044,-11.3387
In2GaSb2,24.45,21.3684,-3.0816
BaTc,41.7306,34.957,-6.7737
Ta2Mn3FeO9,53.7769,48.9079,-4.8689
Dy2(MoO4)3,0.0,0.0,0.0
TcGePb3,53.2154,49.9187,-3.2967
NdNi,15.1992,18.7519,3.5527
SnI,21.9084,23.986,2.0776
NaHfCd,50.4105,39.0306,-11.3799
TlZnIr2,40.8937,39.4931,-1.4006
Er3Tm3Tl2Rh,36.3354,36.883,0.5476
Ba2SrUO6,0.272,1.8465,1.5744
ZrSc2W,37.2057,35.9846,-1.2212
Fe2As4Pb3O16,7.6397,8.0204,0.3808
Nd3Sm(Mo4O15)2,16.8606,14.9678,-1.8928
RbAcPtO4,15.1573,13.2848,-1.8725
Pb2WI,38.4884,41.2387,2.7502
Al2MoIr,20.8172,21.128,0.3108
Rb2Ac2PtO6,18.8315,17.5378,-1.2937
Pr3Se2S,21.2487,16.8005,-4.4483
TiP2Ir,12.8114,14.1318,1.3204
Rb2AcPtO6,14.9838,13.5683,-1.4156
Sb2MoAu,33.2351,30.0504,-3.1848
Ca(Ac3Co)2,43.516,44.3172,0.8012
Ca(SmCu3)2,11.2867,12.1297,0.8431
ReHgSN2,71.4745,59.6308,-11.8438
Ca(Nd3Co)2,16.3954,17.0023,0.6069
TlPtC2I,59.5719,45.0992,-14.4727
Ca(HoCu3)2,12.0008,12.8427,0.8419
Be2AlSi,27.0419,19.4614,-7.5805
MoC3Br,45.1691,31.8545,-13.3146
Ca(ThCu3)2,20.4443,21.6381,1.1938
CaTa3Pb,35.5475,37.4993,1.9517
K2BiAu,28.7397,30.1324,1.3926
Sm3DyPb3,32.3692,35.4514,3.0822
BeAl2P,30.0745,21.7532,-8.3213
Y2Ga3Pd,12.6612,12.4611,-0.2001
Er2PuMg,33.6189,36.1706,2.5517
BeAlP2,19.7197,15.3304,-4.3894
Tb2SmAg5,29.129,24.8403,-4.2886
Tb3SmAg2,27.7185,27.152,-0.5664
AlMoIr2,24.2875,27.1962,2.9087
Ca2MgSi,11.7146,9.0702,-2.6444
Re2Te2W,41.8834,43.0869,1.2036
MnMo2PdC,44.6304,35.2796,-9.3507
TbSmAg,23.3857,23.8621,0.4764
NaPm2Sn4Pt3,41.902,34.1346,-7.7674
Y4Ru2Rh,28.0585,24.165,-3.8935
Ba3Be,0.9189,0.8426,-0.0763
Re2HgMo,27.2272,28.5926,1.3654
BeAgRh,28.2472,21.3161,-6.9311
Ti2Ni2H3,7.4097,6.9137,-0.496
Si2NiPt,31.0159,24.3498,-6.6661
Gd2YRh,30.0846,29.1245,-0.96
GdYRh,30.3693,27.3256,-3.0437
Y2SnRhC,47.1037,34.9443,-12.1593
Li2ReSb,21.7384,21.1556,-0.5828
Na4LaY3Te8,31.7001,28.7415,-2.9586
NaNpTe3Pd,33.7498,33.251,-0.4987
Rb2NaPdF6,9.434,9.912,0.478
Zr5Sc3,63.3633,53.1045,-10.2588
CdCuP3,12.5504,11.1431,-1.4072
CsFe3(As3O10)2,4.2337,3.2873,-0.9464
TaCoSe2,56.1592,42.2193,-13.9399
Ca(HoGa3)2,11.8935,13.7245,1.831
Ca(NdGa3)2,11.0321,12.8775,1.8453
CaBe4Al,16.5122,10.8683,-5.6439
Al2MoIr,20.7598,21.128,0.3682
KSb2As,27.9005,24.2528,-3.6477
Nb2SiSn,81.8385,66.8791,-14.9594
Tm6Th2H,35.0899,36.6005,1.5106
Y2BePb,18.8048,20.0335,1.2287
GaCuSN2,17.313,13.6507,-3.6623
FeNiAg4,37.3307,27.9281,-9.4026
CoP4,8.1768,7.1061,-1.0707
Be2AlP,18.8869,14.8611,-4.0258
Sb2CSe,45.9336,34.5631,-11.3704
Ca(GeI3)2,17.2003,17.8244,0.6241
GaCuNF2,7.6489,7.273,-0.3758
AgTe2Mo,30.6222,27.5364,-3.0858
KCoC2,39.6578,27.6662,-11.9916
SrZr2V,80.0667,65.9782,-14.0885
AgTe2Mo,35.2148,27.5364,-7.6784
SrTe3C,40.3123,34.8445,-5.4678
Ta2CoSe,53.1907,42.6133,-10.5774
RbMoBr6,10.0574,11.5108,1.4534
Na2YF4,8.8726,8.795,-0.0777
Ca(AcHg3)2,14.2373,15.3789,1.1416
Cs3Tm(SO4)3,8.441,7.5355,-0.9055
AcSiPt2,63.6335,49.0808,-14.5527
TeIrPt,58.5989,51.226,-7.3728
Cs3BaSb,24.2009,22.195,-2.0059
Na2Ni2Te,20.8261,19.3607,-1.4654
LiYBeAg2,19.2362,13.5511,-5.6851
NaNiI4,20.104,19.5362,-0.5678
Li2TaSb,20.8312,19.8258,-1.0054
YHfAgOs,58.4796,47.5197,-10.96
AsHF2,12.9265,0.0,-12.9265
Mn(AgAu3)2,49.4874,45.8421,-3.6452
Mo2PbBr,31.4849,29.8928,-1.5921
KCo2C,25.5562,19.8921,-5.664
BeAlP2,19.3995,15.3304,-4.0692
Tb(CeRh)2,27.4137,24.7787,-2.6351
CaLa2W,37.389,30.1415,-7.2475
CaLaTbY,29.3971,23.5399,-5.8572
TiSb3As,36.5709,27.1256,-9.4454
CaLaW2,33.8151,33.3337,-0.4814
AcSm2Pt,33.8133,31.2828,-2.5305
BeCrW,20.2691,20.9031,0.6339
Bi3RhC,56.2485,49.2493,-6.9992
Sm5DyPb5,37.4455,38.8377,1.3922
ZrPtNF2,41.2832,34.6626,-6.6205
Na3(TlPb3)2,44.6511,44.0871,-0.5639
Ce(NdRh)2,27.1824,26.1159,-1.0665
LiY(MgH4)2,3.566,3.8459,0.2798
BeAl2P,30.0918,21.7532,-8.3386
AcSb2PtRh5,54.1031,41.0179,-13.0852
Ca(PrI3)2,14.1036,14.0422,-0.0614
Ca(Sm3Tm)2,24.1096,26.9132,2.8037
Ba2CaIn6,13.404,14.4074,1.0034
Sr2AcPt,44.8887,39.7734,-5.1153
KTa2As,24.9281,27.0486,2.1205
TeWC3,56.3878,42.7636,-13.6241
SrZnPb,21.61,24.0614,2.4514
Ca(PmZn3)2,11.5022,12.3893,0.8871
Cr2Ni2Ru,26.677,24.8172,-1.8598
ScFe,0.0,22.5428,22.5428
CaMg2Re,9.9992,12.8535,2.8543
CaReI3,23.0821,23.6329,0.5508
Al2AgPt2,37.2504,27.7443,-9.5061
YCl3O,33.6127,31.6298,-1.983
BeInRh,23.0394,19.5915,-3.448
FePC,20.4987,15.4102,-5.0885
Fe3BSb,19.1535,16.2968,-2.8566
PrSbOs,19.8801,22.412,2.532
Ta2RuPb,35.906,40.1419,4.2359
Sc2MnAl,28.6684,24.1502,-4.5183
Ca2LaRe,25.8651,23.4057,-2.4594
Ta2RuPb,35.7686,40.1419,4.3733
CoRu2Pb,25.4654,26.9827,1.5173
CoRuPb,28.5348,29.1517,0.6169
Y(InRh)2,25.5028,21.4673,-4.0355
MnAg2Te,51.233,40.5447,-10.6883
NbOsSe2N,73.4011,58.7319,-14.6691
NbSeN2F,40.5093,33.6814,-6.8279
MnAgTe2,54.0135,44.3767,-9.6369
CaLaRe2,34.863,33.122,-1.7409
Ce(PuRh)2,53.0594,49.0894,-3.97
CaLaRe2,35.0336,33.122,-1.9116
LaNbN2,38.7264,30.9871,-7.7393
BaNaSe2Br,25.8484,21.3221,-4.5262
Y2ClO,61.5913,56.6412,-4.9502
ZrBe3,19.7429,20.9207,1.1778
Ta2(NbMo2)3,54.023,49.994,-4.0289
Ca(Ac3Os)2,47.4053,51.2492,3.844
Y8C3S,37.7959,31.2496,-6.5463
Sr6Hg2Rh,11.6774,11.4378,-0.2396
Ca(PrSm3)2,12.4818,15.1871,2.7054
Mn3AgTe,75.229,58.2919,-16.9371
Ca(PrNd3)2,12.4346,13.9831,1.5485
Ca(Pm3Pr)2,12.3066,14.9253,2.6187
Ca(Tb3Pr)2,13.6089,16.2959,2.6871
Ca(AcPr3)2,8.4689,9.9677,1.4989
Be2CrW,17.7527,17.2253,-0.5274
HfTlRu2,50.0998,43.0901,-7.0098
La3ScCu,46.1973,32.0461,-14.1512
PrMnGe3,24.0582,20.7459,-3.3124
Pb2SF2,29.8723,29.0715,-0.8007
Ga2H2Pt3,40.525,29.3726,-11.1524
Na3OsI,28.5053,25.434,-3.0712
LaSc2Cu,33.0381,25.3946,-7.6435
NaLa3Mo,40.5502,29.1471,-11.4031
Zr2ReOs,69.2897,64.1627,-5.127
YCl4,33.1758,31.1184,-2.0574
NaOs2I,34.2634,34.9789,0.7154
Pr6Tl3O,13.9176,13.9972,0.0796
Ca(AcSm3)2,27.4082,29.8221,2.4139
BeCrW2,24.5733,26.9415,2.3682
Sr2Ac2PdPt2,49.6047,42.953,-6.6517
BaLiTc,34.7548,28.131,-6.6238
TaRuSe2,37.3853,35.7282,-1.6571
BaLiTc2,49.6033,40.7918,-8.8114
Ba2LiTc,25.9548,21.9326,-4.0222
Li5In2Hg2Pd,6.1203,6.2456,0.1253
SiNiHg2,3.2358,3.82,0.5842
Ga2TeRu,20.2532,20.0644,-0.1888
ReIN2F,66.8046,58.1583,-8.6463
Ta(Re2N)2,102.9035,92.1732,-10.7303
SrAc(AsPt)2,48.3715,38.1163,-10.2552
Mg2In2Se5,30.9155,26.5385,-4.377
BeCrW2,24.4806,26.9415,2.4609
LaTmHf,75.4967,57.2432,-18.2535
MoPd2,14.5213,15.9589,1.4376
YSc4Tl5,28.5398,30.5336,1.9939
NaPmLuHg,20.6281,21.1866,0.5585
Li3RuCl,8.0854,7.1905,-0.8949
Ca(Sm3Dy)2,23.3832,26.1953,2.8121
Ce2DyLu,27.7724,30.8784,3.106
RhSe3I,44.7379,35.6099,-9.128
LaScCu,42.2079,31.621,-10.5869