Formula,E_hull_DFT (eV/atom),E_hull_ML (eV/atom),Delta (ML - DFT)
Ba2TmScO5,22.1836,23.2186,1.0351
InGeTeW2,31.6712,32.5111,0.8399
CaNpPt2,62.8669,49.6219,-13.2451
BeP2Pb,16.9527,16.9288,-0.0239
TlSnHg2,16.1499,17.2768,1.1269
LaW2,26.6998,28.3676,1.6678
VPPtS2,68.2213,52.8676,-15.3538
SrTaBe2Ag,27.2709,20.361,-6.9099
Y3TmPt,25.4119,21.6813,-3.7306
Ba6IrO2,0.0,1.1067,1.1067
Ba6AuO2,0.2428,1.0157,0.7729
Co(SnHg)2,7.1892,8.4497,1.2605
BePPb,19.837,21.4628,1.6258
Nd4YHo3Se8,34.6546,30.7337,-3.9209
Al4InSb,12.969,12.56,-0.409
LiThNiAg,25.9676,26.8972,0.9296
Nd2Y3HoSe6,32.2548,28.2985,-3.9563
BeP2Pb,16.3672,16.9288,0.5617
Ac2PtBr2,47.9081,45.2167,-2.6914
Hf2Ga4Au,52.4158,41.4209,-10.9949
LaCr2Mo,15.9443,14.0635,-1.8808
CoIr4,27.9412,34.4188,6.4776
CaPrSe2,37.9553,31.9198,-6.0355
AlZn2Re,25.7349,21.015,-4.7199
HfSiPt,73.7676,58.5808,-15.1868
AlZnRe2,33.8149,31.7794,-2.0354
CaLaSe2,51.9104,40.845,-11.0654
SrCaSe2,43.5869,36.7717,-6.8152
CoNiPCl2,21.4753,15.582,-5.8932
GaRe2P,35.5939,32.253,-3.3409
Sr4CaAc3Te8,35.6627,34.9456,-0.7171
Tl2ZnOs,38.6047,40.0348,1.4302
PuThNiAg,43.9229,45.5259,1.6029
CaLa3(PrTe2)4,28.928,24.3363,-4.5917
Y3TaCo,47.7137,39.0919,-8.6217
NaNd2FeO5,6.837,7.3609,0.5239
In3GaRh3,30.3473,24.8343,-5.5131
Cd2InBi,26.2009,27.5843,1.3835
Ca2Ac2Pt,45.2739,40.6341,-4.6398
Mn2PbSe2,63.7681,52.7027,-11.0654
LuThRu4,27.0469,30.7981,3.7511
SiTc3Pd,64.648,54.3953,-10.2528
Zr2AuCl,61.6602,52.3478,-9.3124
Pd3Pb,26.2216,28.6533,2.4317
TaGaRuRh2,58.2902,43.9418,-14.3484
AcTlPt,63.043,56.6768,-6.3662
CrNi2OsPb,32.621,32.8996,0.2786
Ac2ThSi3Pt4,58.7764,45.6242,-13.1522
ReAg2Pt,48.5513,39.5703,-8.981
TaInBiRu2,30.7833,32.584,1.8007
TmSc2Au,21.6651,24.5373,2.8722
EuYHoAl,33.4919,30.7619,-2.7301
Ba2InAg4Ge3,17.0166,15.2443,-1.7723
LiRe2Tc,43.5666,43.0992,-0.4675
CaAcEu2,31.5683,33.4299,1.8616
SiSbPt3,65.6845,44.0928,-21.5917
NdPuAgIr,42.6001,44.3415,1.7414
K2TcICl6,15.4697,14.2825,-1.1872
CaAcEu2,31.6739,33.4299,1.7561
CaAcEu2,31.537,33.4299,1.893
Re2AsOs,33.1488,37.6937,4.5449
ScNiRh3,33.1856,23.9614,-9.2242
ReAs2Os,26.1783,28.8035,2.6252
TcTe2Cl,45.9682,40.9614,-5.0068
Cs12Ag3O5,10.447,11.555,1.1079
YLuCoNi,57.4183,51.2177,-6.2006
ReAsOs,31.2795,36.9074,5.6278
Re2AsW,33.1879,36.8936,3.7056
Y2TaPbBr,46.2733,38.6956,-7.5777
Re2AsW,33.3888,36.8936,3.5048
Ta5OsRu4,28.7104,33.4666,4.7562
Ba2NdSn3Pd4,18.5845,16.5433,-2.0412
ReAsW,30.9561,35.534,4.5779
Ba3GaSn3,7.2157,8.951,1.7353
Ga(SnAu)3,26.6105,27.7431,1.1326
Na2In2Ga,17.1305,16.0336,-1.0969
TaCuPt2,56.2763,43.2514,-13.0249
Te2PtPbI,49.9334,42.95,-6.9834
Cr3PdW,18.299,18.0649,-0.2341
SrMnTc2Pb,71.1731,61.9088,-9.2643
Cr2PdRh2,19.0109,15.2421,-3.7688
CaTbCeTm,22.0394,24.8216,2.7822
Li5Si4,16.2378,13.2231,-3.0147
CeTmBi,30.8173,34.8948,4.0775
GdTmRh,35.7621,33.7203,-2.0418
Ta2OsRu,33.5185,37.9729,4.4544
Np(MnSi)3,51.7665,41.9537,-9.8128
YZr2Ru,53.0439,44.1907,-8.8532
EuPb,39.8939,42.2586,2.3647
LaY2Pt,41.8182,31.3239,-10.4943
CaSnSb2,25.9385,21.7037,-4.2348
NaPrPAu,16.9868,17.9431,0.9563
Ti10O13,0.0264,1.884,1.8576
TaOs2Ru,34.2756,38.918,4.6424
LiY3Co,25.0222,21.8802,-3.1419
Tc2SbTe,68.3895,59.2242,-9.1654
Mn(CrFe)2,32.9503,24.365,-8.5853
Cs3NaI,23.5315,22.7747,-0.7568
Ta2OsRu,32.7439,37.9729,5.229
ScCu2Rh,26.86,21.8556,-5.0044
Nb2TeC,87.5833,73.8518,-13.7315
TlCu2Pt,38.5618,32.207,-6.3548
Ce3GaRu3,11.5165,15.4137,3.8971
Tl2CuPt,49.7056,43.0704,-6.6352
YMgBiAu,30.0942,31.2658,1.1717
SrAc2Eu,42.7751,44.6624,1.8873
NbTl(IO4)2,31.2599,26.7147,-4.5452
Li8Pt,10.2163,7.5827,-2.6336
SrAc2Zn3Pt4,51.6122,40.6392,-10.973
Ba2TlCd3Ge4,14.2563,15.274,1.0177
SrTcSb3,48.2037,39.2008,-9.0029
CdSiRu2,23.2827,19.4246,-3.8581
CdSiRu2,23.1398,19.4246,-3.7152
Cd2SiRu,20.9523,18.4618,-2.4905
Er2TlGe2,20.2632,23.4035,3.1403
GeRhO,13.0897,10.3438,-2.7459
Ca3B2SbPd9,14.542,14.8765,0.3346
Zn(CdPt)2,41.2987,31.3399,-9.9588
BaSi2Ru3,20.6857,15.9924,-4.6934
HfNbTe3,82.8892,66.8932,-15.9959
Li8Ta,4.8734,5.7683,0.895
SrLiP,12.0971,9.8985,-2.1986
Cs2NaI,23.3978,22.8666,-0.5311
LiAcSi2Pt5,61.8699,44.0069,-17.863
CrRe2Au,34.4238,36.6702,2.2463
AcIn2TeO8,16.6902,16.5683,-0.122
TlCdBi,41.5603,42.911,1.3507
AgTe2PtI,46.7013,37.8259,-8.8754
Hf2NiAu,84.8931,65.502,-19.3911
NiSbPd2,21.1757,20.2703,-0.9053
SrSiCl6,10.7846,10.0995,-0.685
Cs2(Tl3Cd)3,38.3449,39.3587,1.0138
Ac2(CdHg3)3,11.674,12.6814,1.0074
SbIrCl2,24.6397,24.627,-0.0126
Cs2(CdHg3)3,6.6123,7.103,0.4908
Ac3Cd9Hg2,25.829,26.8515,1.0225
Sr2CrSb,22.0011,18.1821,-3.819
Ba3Cd9Hg2,12.0014,12.699,0.6976
NdTh2Re,49.4158,54.141,4.7252
Ac2(Cd3Hg)3,19.8292,21.3099,1.4807
Ba3Cd9Pb2,19.5642,20.323,0.7588
Cs2(Cd3Au)3,24.328,25.2394,0.9113
Ca2InW,17.727,20.1589,2.4319
Nd3CuAg3,24.7378,23.6463,-1.0915
Ce2ZnGe2,9.5241,13.0446,3.5204
SmPb,38.403,42.4807,4.0777
Th3CuAu3,49.0119,51.2504,2.2386
Y2SnIr,26.6969,27.0416,0.3447
NbTeAuI,59.2498,53.8802,-5.3696
GeW2Cl,17.0173,22.1622,5.1449
NbGaTe3,55.3672,48.1408,-7.2264
YCo2Si,29.0078,24.2644,-4.7434
La2SiRhBr,35.5186,23.6098,-11.9088
BeZnRe2,33.4587,29.4599,-3.9988
Be2InP,6.9697,7.4222,0.4525
Ba2SrCa,6.72,6.1846,-0.5354
CdFePb2,33.9985,33.4451,-0.5535
SrCaHg2,4.0655,4.1176,0.0521
Er(TmBi)5,40.8446,42.2935,1.449
NdScPdRh,27.5532,24.1636,-3.3896
YCoSi2,10.2204,7.4267,-2.7937
CaTb2Ho,17.9118,21.8246,3.9128
La2Ho2Zn,33.3973,28.2035,-5.1938
Ba2Sn4PtRh3,31.3479,24.3866,-6.9613
CrCdRe3,54.4661,48.4424,-6.0237
CaBeCu3,12.7126,9.4548,-3.2578
Nd2Th2Zn,37.6971,41.0413,3.3442
CuTc2Au,60.212,55.8371,-4.3749
TlTePtI2,45.6087,39.2071,-6.4016
CaNdTe2,22.3035,24.3614,2.0579
Ac3In3Cu,32.8905,36.3182,3.4277
Nd3CuI3,7.9351,13.1316,5.1965
BeZn2Re,30.9584,23.169,-7.7894
Al(IrO3)2,0.0,0.9924,0.9924
La3CuI3,19.0634,15.5737,-3.4897
CaPrTe2,15.69,16.9437,1.2537
Sr2Ca7,8.462,7.9903,-0.4717
Al(PO3)2,10.742,8.504,-2.238
CaPmTe2,22.3535,24.6723,2.3188
Ac2Ni3P4Pt,29.7596,26.5389,-3.2207
UGaNi,27.5202,20.0845,-7.4357
BeZnRe2,33.229,29.4599,-3.7691
Ac2TbSb3Pt4,63.8479,49.6106,-14.2373
LaPm,23.7551,28.5664,4.8114
Tb(CdH4)2,6.1371,7.5892,1.4521
LaPb,36.7663,33.778,-2.9883
CaSm2Y,17.9399,18.1044,0.1645
Ti4Pd,0.0119,4.2157,4.2038
ZnTcSe,49.5265,42.7901,-6.7364
VNi2RhO6,19.6309,15.7279,-3.903
Sm(DyS2)2,22.6541,19.0189,-3.6351
In3CuPd3,16.7505,18.5634,1.8129
TbCd(H3Pt2)2,33.456,23.6565,-9.7996
LiEr3,22.346,24.1715,1.8256
LiI,4.6266,9.9765,5.3499
NpMn2V,99.712,84.8495,-14.8625
LiSi8,15.9862,9.5237,-6.4624
NaAgSbPt,47.4016,35.685,-11.7166
Te3PtI,48.1165,40.158,-7.9585
Sr2AcPt2,48.4705,38.4657,-10.0048
ZrNiBr,38.8324,34.0547,-4.7778
Th3Tc,64.3301,65.3693,1.0393
CaHf3I,93.6962,68.0061,-25.6901
Sr(AcPt)2,58.0705,48.8384,-9.2321
Ca2LaIr,33.4741,25.8094,-7.6647
Co2Rh7,39.5885,29.0663,-10.5222
Tb2ErTc,44.1308,43.5677,-0.5631
LaSiRh2,40.6774,28.5348,-12.1426
Y3RuAu2,27.7219,27.373,-0.3488
HfCrFe2Sb,57.6659,42.2382,-15.4277
TcPd3,36.5473,36.3951,-0.1522
PaNi2Sn,30.8505,29.7609,-1.0896
GdGaNi4,12.5913,12.9937,0.4024
LiY2P,21.2214,16.9063,-4.315
La2Ce2Ge4Pd,22.5588,19.7341,-2.8247
Pr8GaRu3Cl4,29.1458,24.6682,-4.4776
PaTe3,42.2097,41.925,-0.2847
NaMgAs,11.6419,10.2233,-1.4186
YZr5Ru6,51.1159,42.1265,-8.9894
GdEr2Tl,34.555,37.3219,2.7668
LiZr2P,55.0851,42.6376,-12.4475
CsTl4In2Sn,35.9694,36.8223,0.853
Gd2GaNi,19.1393,20.6893,1.55
Pr2P3(HPt2)2,31.9422,21.6915,-10.2507
Tb4HfCo19As12,22.2793,16.9545,-5.3248
CuTc2Os,58.72,54.4398,-4.2802
TlSi2NiRh,27.5099,22.3353,-5.1746
Tl(CuGe)2,13.1249,15.4676,2.3427
Pm2ZnRh2,30.3731,26.4401,-3.933
AcEuTm2,38.6382,40.7627,2.1245
Pm3ErBi4,39.3727,41.7989,2.4262
Cu4PH5,6.0572,5.6127,-0.4445
ReNiPb,59.7125,47.4071,-12.3054
Nd3CuSn3,27.6295,28.6877,1.0582
InCoSn2Sb,23.4723,21.581,-1.8913
CuTc2Os,58.735,54.4398,-4.2951
InSi2As,25.5842,22.1592,-3.425
InSi2As,25.5109,22.1592,-3.3517
CsInGe2Mo,17.7701,18.148,0.3778
KAgW2,58.9117,49.7804,-9.1313
TaTePtI2,43.7722,37.1621,-6.6101
TbGaPb,28.8122,31.379,2.5668
Re2TcAg,43.6071,44.2519,0.6448
ZnReSi,36.0727,27.8013,-8.2714
Tb2Ga4AgAu3,25.4603,26.231,0.7707
Tb2DyS4,35.4957,31.7046,-3.7911
Re2Tc2Ag,50.2888,49.1103,-1.1785
TbCdH6Ru,6.7932,7.45,0.6567
ReTcAg2,49.4894,44.8633,-4.6261
IrOsAu2,45.2229,48.6331,3.4103
BaCuOs2,17.7921,20.8561,3.064
YZrAu2,45.7969,44.367,-1.43
Y2ZrAu,43.1293,41.7533,-1.376
Sr3CuPt3,39.8533,31.1114,-8.7419
Tm3CuAu3,33.6529,35.5997,1.9468
AlAsCl,17.6552,18.5897,0.9346
NpIrOs,40.8402,47.57,6.7298
BaCoRe,24.6729,22.7539,-1.919
Mg2Ru,0.0,3.803,3.803
ReOsRh3,47.7731,39.5764,-8.1967
LiPtAu2,45.9143,39.864,-6.0502
Cs2Ba2PaO6,9.1168,10.524,1.4072
PrSmBiAu,31.2916,32.7713,1.4797
YZrAu2,51.1621,44.367,-6.7951
AlSb2(PbAu2)3,44.4586,43.4384,-1.0202
YZr2Au,64.2683,56.1053,-8.163
PuPd7Pt2,37.7548,33.2029,-4.5519
Zr2ScCrGe,54.2148,41.4586,-12.7561
YHoSiNi,51.7286,45.4784,-6.2502
NbTePdI2,50.2343,44.3465,-5.8878
TbSI,34.0106,30.4169,-3.5938
TlCuTc2,61.3872,56.3414,-5.0458
CoSbTe2P,34.7771,28.299,-6.4781
Al2ReTc,37.119,33.88,-3.2389
Ca2LaRe,26.1074,23.1459,-2.9615
TbCeGdSc,21.6209,24.7685,3.1476
Ac2Sn3GePt4,54.9725,43.9627,-11.0098
Ca3Tl2BRh3,35.3205,32.1159,-3.2045
AlReTc2,58.2222,52.6447,-5.5775
AlRe2Tc,45.048,45.2545,0.2065
AlReTc2,58.5994,52.6447,-5.9547
La8Pt3BrCl4,43.1831,27.9869,-15.1961
AlReTc2,58.8663,52.6447,-6.2216
AcGePdPt,38.5865,34.7186,-3.8678
Al2GaRe,8.8009,13.9893,5.1884
Hf(SiRu)2,37.3681,26.5177,-10.8505
PmYTmPu,35.5316,38.6768,3.1453
AcP2,17.6783,21.9537,4.2753
SrInPd2,12.312,15.4769,3.1649
Al2TlRe,24.6081,28.4008,3.7926
Li3Y2TiS6,35.3608,26.4029,-8.958
AlTl3Re,40.5116,41.3661,0.8545
AlTlRe,31.9402,34.254,2.3138
YNbO2,56.1358,48.7669,-7.3689
OsAuBr2,28.8121,30.569,1.7569
Ba2ScCdO5,23.533,22.0618,-1.4712
Sr2ScCoO5,23.8786,23.4524,-0.4262
Li2Pm3(AgPb2)2,31.3541,31.7292,0.375
ZnInTc,40.3675,37.1151,-3.2524
Na2Cr4Pb,21.2324,20.1336,-1.0988
Al2TlRe,24.8256,28.4008,3.5752
NaNiI,18.1582,15.7767,-2.3816
Tl2ReO6,17.2936,19.3839,2.0904
Na2CrPb,28.3161,27.1789,-1.1372
LiYNp2S5,39.6023,33.2636,-6.3387
TaMn2Se,71.0478,60.019,-11.0289
Y6HoEr3Tm2,21.7592,23.1981,1.4389
TbAlGaAg,17.0026,17.7892,0.7866
Be2ReCl,12.2102,13.6265,1.4162
Ga2BiP,22.9098,22.8393,-0.0705
TaMn2Se,71.2259,60.019,-11.207
ThSbAu2,50.7987,50.926,0.1273
DyErScAl,16.8464,19.2694,2.423
NbTePt3,91.4453,67.3461,-24.0992
CaTlSeClO,38.0474,34.9104,-3.137
TaIn2Sb,26.1563,30.3293,4.173
AcNiGePt3,54.5057,40.6807,-13.8249
Ac2Ni3Ge4Pt,32.0977,26.7928,-5.3049
Mg4Zn2Cu3,11.8477,8.7253,-3.1224
Ba2ScPdO5,28.6344,25.7594,-2.8751
HfSiRu,34.2747,22.613,-11.6618
HfSiRu,35.2559,22.613,-12.6429
Y2Ho2ErTm4,26.3505,28.5214,2.1709
Te2IrCl,33.2824,33.1008,-0.1815
Ac3GaGe2Pt9,67.6974,50.3586,-17.3389
SrSiBr2,23.3734,17.6229,-5.7505
Tl3B2Pd9,22.1612,23.2694,1.1082
KYCl2,42.8062,42.1104,-0.6958
Nb2TeOsI,79.1873,67.7414,-11.4459
PtAuBr2,41.448,35.6837,-5.7643
Al(OsC)2,35.1157,29.6901,-5.4256
NiAs2,17.2762,14.2549,-3.0213
Pt2AuBr,60.7314,46.5545,-14.1769
Tl3Pd(SeO4)2,22.9788,21.0347,-1.9442
PbI,35.3007,32.4349,-2.8659
YHfRh2,63.0519,47.5704,-15.4815
ReAgHg2,18.5646,18.1355,-0.4292
TiGaP2S,23.4125,21.965,-1.4475
AcAlPt2,54.4623,49.0527,-5.4097
TbSc2(GaCu)2,27.0986,23.8137,-3.2849
Tb2AlGa4Au3,22.5782,24.0923,1.5141
AcSiGePt3,52.4856,39.46,-13.0255
Ca2YCo,27.286,23.3826,-3.9033
NbTePdI2,49.9786,44.3465,-5.6321
ZrNiBr,39.0622,34.0547,-5.0075
SrIn2Pd5,17.2716,19.0767,1.8052
YHo2AlC,38.5191,31.9355,-6.5836
Ac3InGe2Pt9,68.48,51.1038,-17.3762
Cs2PAuI,25.3686,25.1919,-0.1766
In3HgPb3,28.3053,29.4559,1.1505
TlIr2Ru,43.5374,42.7446,-0.7928
Y2Bi4P,43.6082,41.2872,-2.321
K(TlAs)3,24.4842,25.817,1.3328
HfFe2Pb,47.6238,37.655,-9.9688
PuNiSb2,39.6975,35.0393,-4.6582
Tl2IrRu,45.3636,43.2872,-2.0763
HfTlIr2,70.139,63.0777,-7.0613
BeAlAs2,22.4021,16.8037,-5.5984
Tl2CdAg,36.2366,36.3576,0.121
LuAgBi2,39.0744,40.144,1.0696
BaRuSe,21.5708,21.1872,-0.3836
TlIr2Ru,43.1756,42.7446,-0.431
Ba2SrScO5,21.4728,20.995,-0.4778
BaReAg2,38.2912,32.0882,-6.203
BaRe2Ag,40.5258,35.9791,-4.5467
K3Hg3Au,10.1498,10.2909,0.1411
BaReAg3,36.9398,30.2268,-6.713
NdSmYHo2,19.7603,23.0579,3.2976
Cs2SiSBr6,18.1488,16.02,-2.1288
LaAl4Mo,16.351,13.4253,-2.9257
HfTeIr,68.1411,40.5655,-27.5757
CuSb2Ru,28.9037,25.3681,-3.5356
Tb2Zn(GaNi4)3,8.7591,10.0905,1.3315
K2BaBr2,8.023,6.7772,-1.2458
TbTm2(TlTe2)3,40.0555,39.6575,-0.3981
BeAlAs2,22.0824,16.8037,-5.2787
AlTcP,47.1735,41.348,-5.8255
Li3ErSe3,19.1202,15.7887,-3.3314
Zn(PdAu)2,27.3328,29.311,1.9781
Ac3Ge2Pt6Au,65.5488,51.2777,-14.2711
Y2TiGa,28.0363,23.9669,-4.0694
SrCa2La,20.5981,16.2855,-4.3126
AlTcP,54.043,41.348,-12.695
Ac2ZnSn2,30.9364,34.8107,3.8743
La4Os2N,53.2815,40.2129,-13.0685
Y6MgCo,22.1885,19.6854,-2.503
CuTe2Ru,27.6959,27.027,-0.6688
BaBe2Mo,9.9411,7.3251,-2.6161
CaErIr2,37.2618,35.7991,-1.4627
BaBeMo2,13.4935,11.1034,-2.3902
Ba2BeMo,8.6853,6.9695,-1.7158
Ac2Pa(PtO4)3,24.6792,22.2308,-2.4485
AlIn3Re,21.9092,22.8309,0.9217
AlInRe2,26.0951,29.1373,3.0422
LiMnCr,37.2527,30.8564,-6.3963
CaCrRu,24.0572,19.6295,-4.4277
AcNd(ThPt2)2,71.2762,58.1548,-13.1213
Y2HoTmP4,24.8651,21.0057,-3.8594
Ca3ZnN3,14.7341,12.9156,-1.8184
Y2(BeAu3)3,29.7059,29.7341,0.0282
Ca(AcPt)3,60.123,49.1185,-11.0045
Al4MoPb,16.7974,16.8035,0.0061
ZrCr2Cd,34.2608,28.9969,-5.2639
Ho2(BeAu3)3,30.007,32.0843,2.0773
Nd2(BeAu3)3,29.534,31.5961,2.0621
Ac8SnIr3Cl4,41.5899,43.0403,1.4503
AcSmCu,32.2476,35.0901,2.8424
CrRe3Tc,46.733,44.3491,-2.384
NdYHo2N4,24.4399,23.8036,-0.6363
LiMoRh,21.6545,19.0033,-2.6512
Np(ZnIr)2,40.937,37.0691,-3.8679
CdNi8,12.9192,11.0725,-1.8467
TaTlSe2,46.2138,41.7911,-4.4228
Pm2SbP,23.6413,24.2807,0.6394
LiAcInPt,44.2131,37.9398,-6.2733
SrNb3Te,97.1515,80.3121,-16.8393
CaGd2In,20.7176,23.2191,2.5015
CuRe3W,35.4824,37.4945,2.0121
Nb3SnC2,84.7634,70.7661,-13.9973
CaPm2(NdSm)2,22.0371,23.941,1.9039
Y3Er12Cd5,14.9997,17.3681,2.3683
GdErAu,34.772,37.9318,3.1598
Ce3GdMn,40.8376,38.5823,-2.2553
Tb4CePr10,5.8727,7.4453,1.5726
CaZrCu3,26.8912,21.7855,-5.1057
CuReW2,22.2321,31.2765,9.0444
NpBe5Au7,30.753,32.251,1.4979
CaCd7Rh5,29.4167,24.3982,-5.0185
Sr2YMgAu6,32.9661,33.4111,0.445
Zr2InAg2,55.6816,45.9542,-9.7274
Ca2MnRe,38.1717,35.0933,-3.0784
Zr2Hg2Au,48.4965,41.1827,-7.3138
CuRe2W,31.5792,38.0942,6.515
Ca2MnRh,39.7271,32.2054,-7.5217
TaAlIn3,20.6769,22.1902,1.5133
Tm2TcMo3,33.2498,33.6649,0.4151
Tm2Mo3Os,31.4413,27.9495,-3.4918
Ta2AlIn,24.1256,28.1803,4.0547
Nd2YHo4,20.7775,23.0874,2.3099
Ta2AlIn,24.3807,28.1803,3.7996
TaZnSe2,35.4197,32.4196,-3.0001
SrCaPmLu,21.1393,21.7361,0.5968
Ta3AlIn,28.6756,31.0367,2.3612
ReAgMo2,28.8749,28.3492,-0.5258
TaNbTeI2,54.3456,48.3939,-5.9517
CuRuW2,34.9046,29.8239,-5.0807
Ce2Re3Mo,32.908,33.9232,1.0152
ReAgMo2,29.0014,28.3492,-0.6523
Er2Ni12P3Pd,17.0484,15.3209,-1.7275
Er2Cu(Ni4P)3,16.3936,14.8346,-1.559
Sr2Ag2Rh,24.7788,20.4837,-4.2951
AcTh(SiPt2)2,63.8576,47.6769,-16.1807
Re2AgMo,35.2714,34.4645,-0.8069
Er2Ni4GeP3,16.7985,15.9224,-0.876
RbGaNi3,7.7801,8.0012,0.2211
NaSiPS2,34.2265,26.1353,-8.0912
ReAgMo,33.429,31.9487,-1.4803
Fe3Co3Pt,10.6906,4.7421,-5.9485
CaYCo,35.0273,29.7151,-5.3123
PrMnRh2,47.9113,36.9737,-10.9376
CeGa2Re,13.6642,18.3122,4.648
Ce3NiGe3,11.3247,13.7513,2.4265
ReOs2O,40.8846,44.4206,3.5361
TlCdCoSb2,34.2627,29.8644,-4.3983
TaBiRu,35.8371,39.9571,4.12
LaNd2(YHo)2,26.5596,26.1643,-0.3953
PmYAlAg,33.062,28.4806,-4.5815
Ac3VCu2O9,20.8131,20.6659,-0.1472
Nd2Y6Ho3Zr,26.3582,25.9265,-0.4317
NaThAg2,38.3518,35.1757,-3.1761
BaBe2Al,14.673,10.5083,-4.1647
Ta2CdSn,22.591,29.3047,6.7137
BeReP4,24.2719,19.3097,-4.9622
CoNi,19.3231,10.4804,-8.8426
Hf(ZrTl)2,88.456,72.6573,-15.7988
Na2TaCdSn,26.0706,24.8073,-1.2633
AcCu5Pd7,16.8049,18.7282,1.9233
Y2Ge4Ru3,16.1438,15.094,-1.0498
Nd2NiP2,8.4012,12.7311,4.3299
BeTeSe3,38.3634,31.3261,-7.0373
Ba4MnHg,17.1707,14.3389,-2.8318
Sn2OsW,88.3768,73.1846,-15.1922
Nd3Y2HoS6,37.2207,30.3343,-6.8864
Nd2BeNi3P4,13.3585,12.6339,-0.7246
Cd5InHg7,8.0523,8.7632,0.7109
AcBPt2,47.0545,37.5441,-9.5105
SrHg6,1.427,1.862,0.4349
Na3(ZnSn)4,16.9415,15.9939,-0.9476
BeTe2Se,33.5167,30.1597,-3.357
NdNi4SnP2,18.9108,16.5839,-2.3269
NdYHoAl,32.562,30.2137,-2.3483
BeReP2,32.7296,26.72,-6.0096
AcTl2(OsO4)3,15.5938,18.9109,3.3171
PuCo4Hg,16.0079,18.8576,2.8496
Sc4TaIr,58.8253,47.9928,-10.8325
Zr2Nb2Tc,114.3774,94.1373,-20.2401
Pm4NiPb2,29.7183,32.043,2.3247
ZrRuBr3,34.2306,27.9377,-6.2929
Ac4SiPtBr2,47.7763,45.0147,-2.7616
ZrRu2Br,40.6929,34.3709,-6.322
SrZnSb2Te,30.4341,26.0368,-4.3973
InCuNi5,8.4262,10.3318,1.9055
Zr2NbIn2,68.7808,57.8652,-10.9156
CeDyYHo,23.7803,26.9923,3.212
Tb(NdBi)3,21.4309,25.964,4.5332
Tl7CdHg5,28.7368,29.1655,0.4287
Tl4SiRu,42.2982,40.6764,-1.6219
Ag(GeMo)2,9.7059,12.5058,2.7999
Sc5Ga4Tc,29.6536,27.7634,-1.8902
Hf2NbSe,119.3839,90.6789,-28.705
Th3Fe3Sn,23.5608,28.8148,5.254
Hf(ZrSb)2,78.0541,59.3897,-18.6644
BeTcTe,46.1405,41.8245,-4.3159
BeTc3Te,65.134,56.1588,-8.9751
BeTc3Te,66.505,56.1588,-10.3462
Be2TcTe,34.9757,31.4976,-3.4781
Ba2CaAc,15.3439,17.7794,2.4355
ThOsPt2,71.141,58.6209,-12.5201
CaThPdPt,43.7293,39.0925,-4.6368
TbTaAl2,17.1667,20.6148,3.4482
UCoRh,41.2395,39.6662,-1.5733
Th3TlFe3,28.3016,33.5899,5.2883
RbScNb2Ga,60.8752,50.2616,-10.6135
CaGeTe2,23.8359,23.7451,-0.0907
Ca2YCo,26.8013,23.3826,-3.4186
Ac2GeIrRh,38.9148,40.4096,1.4948
SmTh2Ag,47.1514,48.9852,1.8339
Na2Zn2Sn3,18.0395,17.0402,-0.9993
Na2ZnSn5,20.0048,19.2591,-0.7457
Ca3YCo,22.696,19.4143,-3.2817
Mn2WSe,71.6739,61.4132,-10.2608
Pr2NiP4Pt3,29.9523,20.6832,-9.2691
Be2MoAs,13.4464,10.3696,-3.0767
CeZn7Fe5,10.2691,7.5405,-2.7286
TbSm2(TmSc)2,21.2596,23.709,2.4493
BeMoAs2,13.3516,11.9041,-1.4476
AcGdInPt,50.1803,45.2084,-4.9719
NaMnAlFe,29.6119,25.5704,-4.0415
Ti2GaPd2,6.3536,9.3407,2.9871
BeMo2As,15.5153,15.027,-0.4884
ZrGa7Fe5,22.106,16.5316,-5.5744
NaBePt2,50.4488,36.0933,-14.3554
ZnMoIr2,34.36,32.9996,-1.3604
Ta3SiSe,35.7018,34.2223,-1.4795
Sr2RuO6,15.3172,14.2385,-1.0787
Y(MgTa)2,33.2697,30.3146,-2.9551
Mg2UCo,18.8474,18.9907,0.1434
PrO2,7.3096,4.3696,-2.9399
ZrTeBr4,31.6343,28.269,-3.3653
Na2ZnSn3,17.4268,16.2758,-1.1509
PmPr(NiP)2,13.4601,12.6457,-0.8144
Cd(GaBr2)2,11.1882,11.7975,0.6092
Ac3Ga3Pt,43.3631,40.8528,-2.5103
VCoP2S,48.6475,38.5759,-10.0716
Ho2Tm2Zr,39.2643,39.1243,-0.14
TbScPdRh,27.9128,24.4835,-3.4293
Pr2AlNi4P3,18.0342,13.84,-4.1942
CrMo2As,13.7332,16.5812,2.848
NbCdTeI2,49.8352,43.6268,-6.2083
Tl2Pb3Cl8,21.4872,22.5035,1.0163
Sm2Ni3P4Pt,21.7856,18.4118,-3.3737
CrMoAs2,13.1947,12.9732,-0.2215
Ba3Tl3Pd,20.8886,23.5186,2.6299
Er4ScSb4,34.1542,30.544,-3.6102
CaY3Co,29.8545,23.9027,-5.9518
Hf2ZrNb2,134.0897,103.1604,-30.9294
Pr2SmZr,28.5814,25.0513,-3.5301
TaSiRh,32.9259,29.1014,-3.8245
BaBeCr2,14.7964,12.177,-2.6195
Ta2InAs4,19.8433,21.1672,1.324
Tb2YTe,27.0684,28.4754,1.407
La(YAs2)2,16.6078,15.531,-1.0768
ScNi2W,11.2067,12.7159,1.5091
Ca2YCo,27.3009,23.3826,-3.9183
BaSc2W,13.3179,15.9274,2.6095
TbHo2(TmSc)2,22.2489,24.5946,2.3457
CaSb2Br,35.5293,29.9231,-5.6062