Formula,E_hull_DFT (eV/atom),E_hull_ML (eV/atom),Delta (ML - DFT)
Cs2LiP2,12.1381,10.883,-1.255
GdY2Cd,19.0222,21.5593,2.5371
Er7(TeP)4,18.9505,20.9495,1.9989
CeErTh4,53.1275,56.053,2.9256
CeMnCo10,15.7996,15.5313,-0.2683
La2YPb9,48.8028,46.8104,-1.9923
Mg3(P3Pd10)2,12.934,14.1436,1.2096
PmMnCo10,15.8093,15.5235,-0.2857
CeHoHg4,8.3163,9.6989,1.3826
SrTaMn,61.696,46.943,-14.753
ScPaMo,14.8067,23.5889,8.7821
Cs2AsPPt,37.2515,29.9007,-7.3508
ThMnCo10,19.2094,19.0951,-0.1143
SrCaZr,30.516,25.8889,-4.6271
ScPaMo2,34.561,37.0524,2.4914
EuGdYCd,22.6329,24.8809,2.2479
CePm4Nd,24.9968,27.226,2.2291
UMnNi10,27.608,26.4648,-1.1432
Hf5Sc2Sb3H2,72.6347,52.5493,-20.0854
CeNdSm4,25.1499,27.4288,2.279
NdSm2H7,7.7076,9.2025,1.4949
La2HgAu2,34.9772,30.2572,-4.72
RbHf2Sb,78.7884,55.8427,-22.9457
AlS3Br,36.5003,28.0341,-8.4662
Tb4CeNd,26.0417,28.5814,2.5397
TbLuHf,68.0841,56.2947,-11.7894
Nd2Sm2YEr,18.8688,21.8474,2.9786
Ac2Dy(PPd4)3,20.6237,22.6206,1.9969
SrGe2Pb,21.2325,22.4197,1.1871
PrY2(Er2Sc)3,18.3665,19.5438,1.1773
Nd2SbPb,35.8771,36.0571,0.18
YMoSe4,45.9966,34.804,-11.1926
Pr3Y6ErSc2,9.9634,10.8931,0.9297
LuHf2Zr,104.9503,79.8567,-25.0936
TbLuZr2,64.4005,57.3744,-7.0261
FeNi2Ag,33.2977,25.6415,-7.6562
Sc(TaCu)2,63.5968,54.2608,-9.336
BaH3Pt,14.0256,10.3334,-3.6921
Zr2Cu2Sb,45.1005,38.4096,-6.6909
TmMnFe10,16.975,15.5649,-1.41
B3MoIr,15.7565,15.4542,-0.3023
AlReHg2,11.3407,13.0195,1.6789
ScBe2Cr,14.7758,11.7286,-3.0472
Nd4Sm2YEr2,24.5989,26.5405,1.9416
Pr2HfTl,46.5579,38.1587,-8.3992
Li5Sc2Sb3H2,14.2454,12.5062,-1.7392
RbNaN2,12.7724,11.078,-1.6943
CsTmP2Pt5,55.7662,40.9498,-14.8164
VSiP,31.8613,27.0551,-4.8063
MnGeRu2,35.0042,31.8923,-3.1119
BaNa2Pu2O7,14.1032,14.2696,0.1664
RbNa2C,29.1701,21.4219,-7.7482
ErNbCo4,32.4505,30.9612,-1.4893
Cs2AgRhI6,25.9903,23.819,-2.1713
TbCu2Ge,7.1019,10.3663,3.2644
Pm(Sm2Er3)2,27.8225,29.8847,2.0622
ScBeCr,0.0,0.0,0.0
Hg4PIr,12.9152,11.1958,-1.7195
BeCo4Pb,19.1659,16.8836,-2.2823
ScBeCr2,17.1605,13.0037,-4.1568
AlNi4Cl,5.6558,7.4889,1.8331
Pm4ZnAg2,24.0754,23.7455,-0.3299
Tm4RuRh2Au,40.2559,36.5924,-3.6635
TeAuI3,32.0702,31.882,-0.1883
ScBeCr2,16.7391,13.0037,-3.7354
KLa2,35.2633,26.3957,-8.8676
GdYTlCd,27.913,30.3395,2.4265
P2IrAu,30.8767,28.9126,-1.9642
PRu3Se,20.645,20.8165,0.1714
CsSBr,26.7804,23.1334,-3.647
ErLuAg2,31.061,28.6676,-2.3934
ZnCrTc2,51.7851,43.1281,-8.6569
Ti3Nb2V3O16,26.9347,22.1938,-4.7409
ScPa3Ge5,25.9598,27.4998,1.54
Nd2SmYEr2,19.6331,22.4366,2.8035
LaGdYCd,28.4688,26.2438,-2.225
LuTe2Pb,42.0637,42.4883,0.4246
Li2YMnSe4,37.199,30.6325,-6.5666
ZnCrTc2,51.8548,43.1281,-8.7267
CePrAu4,34.2431,36.2875,2.0443
Th3CoPd,23.9831,30.0257,6.0426
TbCeSm4,20.4734,23.8997,3.4263
LiMgBi2,27.8294,29.0557,1.2262
ScNi5As3,15.1315,11.7799,-3.3516
KHf2Ta,79.417,59.1287,-20.2883
Ti2Te2W,20.0905,21.5707,1.4802
NaThPt10,81.6606,58.5902,-23.0704
Y2VGaSi,49.1004,39.5104,-9.59
LiTl5,42.4229,43.3658,0.943
Mn3NiAs,83.9096,67.2779,-16.6317
NaPaNb2O8,29.2172,26.0185,-3.1986
Mn(NiAs)2,48.3109,40.2865,-8.0244
AcAlS3,40.2673,31.7252,-8.542
Er(CuSb)2,21.4579,19.9879,-1.47
BaB3Mo,7.9812,8.0227,0.0415
Ti2VCu,36.4333,31.5164,-4.9168
ReMoAs3,11.9169,14.8282,2.9113
LiVSe3,49.7921,40.0507,-9.7414
YB2RuCl,44.3739,37.2456,-7.1283
RbLi2P,8.5528,5.6155,-2.9373
BaSiSn,1.9135,2.8843,0.9708
Ni2PdC2,24.6459,20.5621,-4.0837
GeBMo,0.0,0.0,0.0
SiB2Mo,8.7258,9.74,1.0142
NaCa2Hf,42.4276,32.4467,-9.9809
Rh2Br,31.6931,24.9742,-6.7189
Rb2ZrCoF6,13.9905,13.1069,-0.8836
PaPdRh,44.2769,42.307,-1.9699
NdYEr,17.3975,22.0717,4.6741
Li2NbSn,37.1857,33.9508,-3.2349
KRb6,3.6168,2.8705,-0.7463
Sr2CaPrTe4,23.8008,23.0747,-0.7262
Ba2B2Mo,0.8735,2.2981,1.4246
TaAlSb4,37.4612,30.9406,-6.5206
NaAcZrO4,24.4122,23.8047,-0.6076
Na(CaSc)2,11.6043,8.4839,-3.1204
ZrCdI3,37.6862,34.1161,-3.5701
NaIrW2,29.3831,35.5789,6.1958
CsPPt5,68.1955,48.4706,-19.7249
ZnOsN2,44.2442,36.5806,-7.6636
Pu6FeTe2,57.0489,57.7562,0.7073
Pr2SmPu,22.1358,25.0501,2.9142
TbB2Mo,10.7079,14.9375,4.2296
ZnOsN2,36.6945,36.5806,-0.1139
ZnCoSb2,29.1345,20.4237,-8.7108
Co4BMo2,8.8826,11.417,2.5344
BaSn3Pt5,50.5415,37.2193,-13.3221
NdY6Er5,21.237,23.2988,2.0618
NbMoW2,58.3604,57.2193,-1.1411
ScGaNiRh,20.5181,17.7325,-2.7856
Ti3ZnGe,8.2617,8.738,0.4763
ScTcPt,112.2691,89.1613,-23.1078
BeRe,3.7284,18.0467,14.3183
CeSmN2,3.0436,8.6921,5.6485
LaSmMnC,52.9107,41.2094,-11.7013
Ac2AlZnRh6,43.1631,35.3227,-7.8404
YTcB2,73.2541,61.3479,-11.9062
KScTc,87.4154,71.3095,-16.1059
PrAsPt3,53.9247,38.8348,-15.0899
TcGe2Sb,34.115,29.9514,-4.1635
Mn4In5Co2,47.2841,38.4887,-8.7954
LaAsPt3,65.166,46.2821,-18.8839
LiB4Ru,3.2852,5.9785,2.6933
K2TcPt,52.9195,40.5583,-12.3613
Sm3InAs,15.2,18.7147,3.5146
NaAuC2,50.2629,38.9666,-11.2963
Li2BeSbBr,20.0347,16.3291,-3.7056
NdY(ErS2)2,38.5799,32.3664,-6.2135
Y(TcB)3,59.6673,49.9684,-9.699
Rb(BaSb)2,14.1456,12.2336,-1.912
Co(ReB)2,7.9058,14.2812,6.3754
Pr2NiSnO6,18.5112,14.021,-4.4902
Zn2CoSb,23.6692,16.5076,-7.1616
Zn2CoSb,23.6973,16.5076,-7.1897
Na2CeZr3N6,29.8842,26.9541,-2.9302
KCr4Pb,17.8104,17.0088,-0.8016
Rb(MgSb)2,18.9199,15.5241,-3.3958
RbBaSb,11.7187,10.1764,-1.5424
RbBaSb,15.0471,10.1764,-4.8708
Nd4YEr6,26.4013,28.429,2.0278
Rb2MgSb,12.8229,10.3607,-2.4622
Cs2BaGa,16.8927,15.697,-1.1958
BeCo4Rh,16.8502,13.5763,-3.2739
BaSrTaN3,8.4622,8.5371,0.0749
Na3Th(BiSe3)2,43.8867,38.6759,-5.2107
CsBaGa,11.6392,11.5363,-0.1029
LaLu2Sb,40.4602,35.0587,-5.4016
Yb2Mn,52.9083,47.398,-5.5102
Cr2Co2Si,2.1827,3.9217,1.739
Rb2SbH2Pt7,56.2507,39.6512,-16.5995
HoAsRh3,36.5644,28.9338,-7.6306
CaNdYEr,23.3337,22.2172,-1.1165
Sb4PAu,39.1618,32.1166,-7.0453
Ce2Dy(Y2Tm)3,21.0753,22.708,1.6328
LaNd6Y2Er3,26.2975,26.3137,0.0162
Ba3CaRu,5.7046,6.3069,0.6023
MoRuS2,30.3765,25.1868,-5.1897
BaSrRu2,12.4223,14.4406,2.0183
Ni2PN,16.4424,14.1093,-2.333
NaBeNiO2,5.576,6.1428,0.5668
SrMnFe3,37.3843,29.3914,-7.9929
NaThInPb,40.6817,41.3871,0.7054
Sc2CoTeC,26.627,21.071,-5.5561
Sr8CuN4,10.3886,10.1249,-0.2637
BaSrRu,10.3501,12.4712,2.1211
BaCa2Ru,6.8097,9.2856,2.4759
NaSmPt10,78.3021,55.1183,-23.1838
HoTcNi4,24.2052,23.8895,-0.3157
K2Na2Cd5Ag2,21.1019,18.7123,-2.3895
HfSnOs,68.555,57.4005,-11.1545
SrSiIrN,21.0764,18.417,-2.6594
SrFeAu4,41.3787,40.6217,-0.757
ScMnInRh,44.2,35.2249,-8.9751
NaCr2Br,23.5423,20.581,-2.9614
GdYCdGa,17.7992,19.787,1.9878
Ho4CS3,41.4582,33.5724,-7.8859
Cs2RbAsI6,24.3578,23.7046,-0.6531
NaSrCd10,19.8879,19.2656,-0.6223
Ti3BMo,7.5228,9.2024,1.6796
YbAlPd,4.9602,11.8936,6.9334
CeEr2Hg5,9.8732,11.0253,1.152
PrNd3(SmY3)2,17.1205,18.5576,1.4372
VNiSe,42.0567,33.9847,-8.072
LaPr2VN5,16.3162,10.7412,-5.575
Na2HoPWO8,5.8766,4.4508,-1.4258
Te2Pd2Au,29.2402,30.1958,0.9556
NaNiPO4,0.2331,1.4256,1.1926
Li6La2Pd3,14.1271,11.834,-2.2931
Na4Ni7(PO4)6,18.728,16.1797,-2.5483
Sm2SbAsRh6,32.6189,24.7708,-7.8482
Sb2PRh,35.8859,28.2269,-7.659
SbP3Rh,22.5532,17.5632,-4.99
SnAsSe3,42.6324,38.2303,-4.4022
PrHfBi2,62.0395,53.4205,-8.619
Pr3SnAs,0.0,0.0,0.0
Rb2SiAg2,14.07,9.7569,-4.3131
PrNd3(Sm3Y)2,20.8461,22.2861,1.44
NaCeZn10,10.3489,10.86,0.511
FeTe4W,37.3501,34.9285,-2.4216
Pr2Nd3Sm6Y,19.5455,20.8119,1.2665
MgInF4,5.2916,6.0047,0.713
TcPt,67.9171,52.968,-14.9492
Y(AlAu)2,29.4823,28.0249,-1.4574
Sc3Br,7.433,9.3487,1.9158
NaSr3Rh,14.6706,13.008,-1.6626
Cs2NaIn3Sn4,21.4151,21.6842,0.2691
Sc3Br,7.8889,9.3487,1.4599
Sc4Te2C,24.9957,21.3821,-3.6135
Cr2RuC,29.7004,28.6266,-1.0738
K(BRu)2,3.8015,8.5754,4.7739
NaSr2CuO,11.8029,11.7864,-0.0165
NiAgAs2,19.862,16.392,-3.4701
NaNi2Mo2H3O10,12.3577,10.9506,-1.4072
NbZnOsRh,59.7258,52.3599,-7.3659
Ta3Pb,41.074,45.9674,4.8934
Ni3PtRh,32.8346,25.1357,-7.699
YP2PdO,29.8146,23.922,-5.8927
TbAsRh3,36.0663,28.6019,-7.4643
Ni4OsPb,20.2672,22.6918,2.4246
SmAsRh3,35.7572,28.2645,-7.4927
Na6Fe2C4SO16,17.5393,16.5019,-1.0374
Na3CoAsCO7,11.9643,11.2477,-0.7166
Ta3Pb,31.5991,45.9674,14.3682
NaTmZn10,10.8281,11.3364,0.5083
Zr3Re,74.3687,64.6964,-9.6723
Na4SrTa5O15,4.932,5.5889,0.6569
Na2SmPCO7,8.7073,7.9109,-0.7964
ZrRe,47.9794,54.745,6.7656
Sr2SbAsAu6,34.6176,33.6955,-0.922
Ba3In4O9,10.7941,10.7635,-0.0306
Ba3Tb4O9,20.7213,14.9639,-5.7573
Na6Ni2As(CO4)4,14.0829,13.8501,-0.2328
ScTeC3,49.6833,35.7366,-13.9467
GaI2BrN,15.1738,15.1243,-0.0495
Ga3PdRu,18.7458,16.7169,-2.0289
Y2Ga4Co3,25.5427,22.2597,-3.283
PaRh6,52.3705,39.6312,-12.7392
YGa4Co,16.5368,15.378,-1.1587
TcPt2,91.0845,67.7901,-23.2944
PaRh,57.5342,55.3388,-2.1954
Tb2YErBi5,41.0377,42.275,1.2372
CrSbPt4,68.66,48.7197,-19.9403
LaSn2Pt,39.1922,30.3936,-8.7986
LiReMo,23.6718,23.3145,-0.3573
UMnB3,25.3219,25.869,0.547
TcRu2I,37.9217,33.0359,-4.8858
Ag2Pt2Au5,53.1264,46.0242,-7.1021
Tb3Y2ErBi6,37.8402,39.7233,1.8831
In2Ag5Sn2,26.4621,22.7935,-3.6686
KLi3Bi,13.3632,13.9123,0.5491
Y6Ga2Co,20.5068,19.741,-0.7658
Tb3Y(ErBi3)2,39.1472,40.9242,1.777
ZrAu4Cl,48.6233,47.1005,-1.5228
YBe4Ir,11.557,12.1415,0.5845
Na2Li3Sb2,19.6201,15.6505,-3.9697
Nd2U(SeN)2,29.2104,29.5385,0.3282
PrNd2Sm,17.5528,20.7235,3.1707
Ti2AlPt5Rh,50.4559,34.9325,-15.5234
HoNiB3,0.5162,5.9076,5.3914
NaAgO2F,13.444,11.0224,-2.4216
PIrAu,39.9842,37.0281,-2.9561
Sr2HfZr,64.0137,51.252,-12.7617
CeSm3N4,11.3894,14.2472,2.8578
P3Ir2Au,32.6577,29.3627,-3.2949
BaTbO3,0.0,0.0,0.0
CoCu4Ru,19.3883,17.3575,-2.0308
TaB3Ir,7.4022,13.9256,6.5234
Zr3Re4,64.8884,62.6741,-2.2143
NaCo2Re,20.5826,21.3,0.7175
MoICl4,14.4329,10.2543,-4.1787
V4Ni2C,84.0448,65.8577,-18.1872
CaSb2W,35.1203,29.93,-5.1902
BaSb2Se,30.3039,25.4941,-4.8098
YGa4CoNi2,35.3951,30.0724,-5.3227
YBPt4,85.2398,61.8273,-23.4125
AcYNiGe,61.1457,55.7178,-5.4279
Y2BeB2Ir5,53.0535,49.1305,-3.923
Si2PRu,12.493,9.4373,-3.0557
Sc2FeTc2,90.9209,74.4654,-16.4555
MnPI2,39.9608,32.1466,-7.8142
SiP2Ru,8.4584,9.3906,0.9322
Nb(H2Ru)2,19.1424,18.2389,-0.9035
NaPr2IrO6,3.4167,3.1176,-0.2992
Li2BeIn2,8.1321,7.4986,-0.6335
Dy2GaIr,25.9707,28.9247,2.954
AlCrRu4,13.2979,15.4775,2.1796
Hf3MnGa2N,52.0643,34.8962,-17.1681
La(BiSb)2,45.3096,39.1509,-6.1587
SiP2Ru,15.4339,9.3906,-6.0433
AcSmPb2,48.2226,50.2405,2.0179
NaTi2Pt,36.765,28.3813,-8.3837
Eu2GaSn,21.4558,22.8663,1.4106
BeRe4Ir,34.5884,38.508,3.9196
SiPRu2,19.9992,16.8783,-3.1209
Eu2GaSn,21.2479,22.8663,1.6184
EuGaSn,0.0,5.5239,5.5239
ScTc,124.8051,102.8191,-21.986
CsKNa10,23.5589,18.9203,-4.6386
Cd2Sb2Pb,33.5465,30.7857,-2.7608
La2MnIn2,43.871,33.2206,-10.6504
GaCuI4,16.4512,17.12,0.6687
PrHo(ThSb2)2,40.8987,37.7278,-3.171
NbTlCl4,29.4385,26.3359,-3.1026
SbPOs4,37.0474,38.0308,0.9835
GaBRu3,7.4468,9.6934,2.2466
SrZrFe,53.7655,43.7871,-9.9784
Tb4Dy3TmSe8,36.0613,32.5328,-3.5285
EuGaSn,19.3937,5.5239,-13.8699
Ca2Pu2Bi2H,37.0374,39.0853,2.0479
OsBr2N,39.2338,31.6347,-7.5991
TiTc2RhS,60.5691,47.4504,-13.1187
Ca5(AlHg)2,0.9194,2.911,1.9916
Sr6Li2Ca,10.4895,10.4223,-0.0672
KMn2Rh,65.9343,49.8189,-16.1154
ZnRhAu,22.0325,22.2247,0.1921
TlNiCl4,11.7727,12.5532,0.7805
Ca2SbW,25.0942,23.2786,-1.8156
Sr2NbNiO6,10.8222,11.0805,0.2583
CaSbW,31.9372,29.6709,-2.2663
NaSiBr2,15.2479,13.3132,-1.9347
Sr2NpNiO6,2.8248,6.1517,3.3269
Be2PW,68.3563,57.4997,-10.8566
Ta2SbP,32.3168,31.6215,-0.6952
HoTmI,26.9485,29.1608,2.2123
AcNd2(ThAs2)3,29.5749,31.7756,2.2006
YRe2SiC,44.1897,42.3489,-1.8408
Cr4ReSi,15.3114,15.7171,0.4057
K3(SeS2)2,35.7651,26.3817,-9.3834
MnTl2Sb,61.8584,53.7665,-8.0919
NdPt10Pb,80.6399,57.7173,-22.9226
Hf2In2I,64.7984,49.3605,-15.438
RbNbCl4,20.8529,18.9072,-1.9457
YTaBeIr2,41.5589,38.7325,-2.8264
Li2VSe2,39.8517,31.2646,-8.5871
Rb4InCo2,6.4987,6.683,0.1844
TaBr,10.8778,20.7125,9.8347
SrZn4Co,13.0486,10.6635,-2.3851
Rb2Pd(S4O13)2,16.0965,13.0929,-3.0035
Fe4SiBr,6.3565,5.4346,-0.9219
HfMg2NbRh4,60.1576,46.0164,-14.1412
BaSr2Te,16.8929,17.7585,0.8656
Nd2ThN3,9.6546,15.9701,6.3155
ZnGaRu,12.0671,13.4266,1.3595
Al2ZnTc2,35.6424,30.3862,-5.2562
Ba2SrTe3,21.5429,21.6805,0.1376
H5(RhPb4)3,27.3498,25.99,-1.3599
BaLi2Te,14.2097,13.4058,-0.8039
LiMn2AsO4,72.6526,63.9516,-8.701
CrAuSe4,42.2275,35.7313,-6.4961
AcThNi10,15.7387,17.6893,1.9506
NaB2MoO6,2.8964,2.636,-0.2603
Be3NiBi,12.6065,14.2009,1.5945
V2GeSe6,56.2355,44.7022,-11.5333
BaLa2Sm,32.2006,25.4231,-6.7775
Li2InAs,5.6978,8.8219,3.1241
Fe4CuP,25.3157,21.2486,-4.0672
WCIO2,44.333,35.4424,-8.8906
CaPb3S4,47.8231,40.7919,-7.0312
ZrBr2,39.3181,35.2112,-4.1068
YTe3S,39.2474,34.9063,-4.3411
NiGe2Au,17.9464,17.4915,-0.4548
Mn2Al2Se5,48.9862,39.1281,-9.8581
ZrBr3,27.7783,25.6558,-2.1225
Na2CrAs2,12.5465,11.6491,-0.8974
BaFe(WO4)2,11.162,11.4567,0.2948
Ca2LaPr,15.1879,12.1018,-3.0861
AlCrFe2,13.9949,11.5961,-2.3988
CoOsW4,78.6527,67.5066,-11.1461
MnRe4W,49.9445,49.8301,-0.1145
HfTi5Sb3,26.1442,20.8394,-5.3049
HfCuGe,45.9983,37.5525,-8.4458
HgMo2Se,20.1999,19.841,-0.3589
YU(TlS2)2,58.2383,52.2744,-5.9638
SmGa2,9.0103,13.0536,4.0433
NbGa2,47.0472,41.268,-5.7792
YLuSnPt,49.3376,39.4242,-9.9133
SrGe2Os,12.9877,16.6183,3.6307
AcLa2(PrAs2)3,16.3082,15.2633,-1.0449
BaNa2MnNb,61.4337,51.4184,-10.0154
KCrMo2,14.0102,15.5373,1.527
MnAu5,51.6491,49.4237,-2.2254
NdGa2,8.8565,12.858,4.0015
Ce3TiBi5,32.9085,35.9854,3.0769
NaSr3Te,20.9794,19.851,-1.1284
YAlOs,16.555,17.1046,0.5497
LiVSb2,54.6228,43.3319,-11.2908
InSn2IrSe,31.9437,30.6893,-1.2545
Ca2BPdO5,21.0071,19.6127,-1.3943
TaTlCl4,12.2585,16.2738,4.0152
Ca3Er3Ge2BO13,19.3428,16.4017,-2.9411
Na2Li2Ca,9.6596,8.396,-1.2636
In2FeOs,30.1358,27.6387,-2.4971
RbNaCr2,10.5895,10.8152,0.2257
Ca2Ac(BO3)2,20.8121,19.4322,-1.38
RbNa3Cr,19.1048,15.7371,-3.3677
Er5Ga2,18.6671,21.7361,3.0691
Tc(GeW)2,29.2276,31.4576,2.23
Mn4CdS5,69.6224,51.8855,-17.7369
ZrTi5Ga3,10.3152,10.7184,0.4032
YAl2Os,30.3891,27.2858,-3.1033
Y3AlOs,31.1309,26.4393,-4.6916
NiBiPt3,67.3778,50.8342,-16.5436
GdScI,18.9672,20.5491,1.5818
Ho5Er3,24.1291,26.6936,2.5644
GeSbSe,34.1778,28.2782,-5.8996
FeCoSb,33.9334,28.1752,-5.7582
Ga5(I4Br)3,11.1007,12.3301,1.2294
SrNpNiO6,3.3355,4.6411,1.3056
BaGe2Sb,11.6913,12.0639,0.3726
Ge2Sb2Se5,38.5991,31.6192,-6.9799
Y2Pa(TeN)2,56.0073,50.2185,-5.7888
Pu5TlPb3,53.5198,56.7331,3.2133
BaGeSb2,20.2491,17.7733,-2.4757
BaSb2Se,33.8771,25.4941,-8.3829
Tb5PrY3,14.5359,17.8461,3.3102
Tb5DyY3,17.78,21.106,3.326
BaLa2Sb,36.7706,27.2532,-9.5174
Na2Mo2C,22.5173,19.511,-3.0062
Y2Rh,25.0349,23.3003,-1.7346
Ge2SbSe3,30.394,25.0191,-5.375
BaLaSb2,34.4022,27.1131,-7.2891
NaHf2TlSi,76.1473,56.342,-19.8053
TmTh3Pb5,48.8905,52.5341,3.6437
Cd2NiOs,20.5954,22.6917,2.0962
CaHo(BO3)2,4.5232,4.7629,0.2397
La3CeCoAu2,40.2538,33.1126,-7.1412
ZrCu(WO4)2,17.2378,17.4238,0.1861
Er5(TiPt4)3,42.1509,27.8745,-14.2763
ErPPt,19.8609,17.2077,-2.6532
Ba(YIr)2,35.5658,35.4411,-0.1247
Mn4SiMo,71.2751,55.9257,-15.3494
Fe(SiTc)2,36.031,28.563,-7.468
Tb5PmY3,17.4792,20.7261,3.247
LiLaSc2,16.0685,13.0733,-2.9952
NaCeAu10,43.2764,43.8139,0.5375
KAgF3,1.4504,1.3606,-0.0898
TmHfMgN3,31.2378,26.0954,-5.1424
Ba3HgPt,8.4044,5.7373,-2.6671
LiFeRu2,26.1225,24.2393,-1.8832
USi3Pd5,15.9588,16.7248,0.766
TmPuMnN3,22.8802,23.9946,1.1144
YGe2Pd7Pb2,24.271,24.7492,0.4782
AlSbN2,12.3116,12.8158,0.5042
HgB2TeO6,0.0,0.0,0.0
RePCl,42.9155,36.3807,-6.5349
YTmN,43.1334,44.5142,1.3808
BiAsC,37.197,31.5839,-5.6131
TeMo2AsOs,31.5331,27.6849,-3.8483
BeTlSe,33.3335,31.4074,-1.9261
AgTe2,38.7468,35.097,-3.6499
Mn2InN,47.4225,38.8574,-8.5651
CsZr(BO3)2,17.4615,13.0626,-4.3989
Na(Hg3O4)2,1.8666,2.4326,0.566
Sr3LaF,21.5162,17.3626,-4.1536
Sm2TlRu2,20.1765,24.5437,4.3671
Sr4MnRe,39.2482,31.2188,-8.0294
ZnSnAsAu,18.0192,20.789,2.7698
AsRuPt2,53.9085,39.8096,-14.0989
Zr2ZnCr,54.6465,46.2643,-8.3822
CdPbCl,25.3228,26.8217,1.4989
CrCuSb2,27.7986,22.1958,-5.6029
LaFeNi2,38.4105,28.9884,-9.4221
ThBeAl3,23.8133,22.3855,-1.4279
Tc3W,79.3558,69.6093,-9.7465
TcW,0.6949,7.1851,6.4901
CaFePb4,46.5844,44.5424,-2.042
CaFe(SiB3)2,4.1046,2.9083,-1.1964
ZrCr,44.9557,41.7416,-3.2142
RbInSi,12.5314,10.687,-1.8444
NaPaPdAu,39.0513,40.0425,0.9912
CaNb3Sn,91.4444,76.2269,-15.2175
NaV2Cu,73.2368,57.7528,-15.4839
Ca3NbSn,36.1687,31.6298,-4.5389
YLuPt,44.746,38.1299,-6.6161
RbInCo2,5.5981,7.7989,2.2008
Pm3SmSb4,33.6776,30.3653,-3.3123
BeCrSb2,24.8669,20.3883,-4.4786
NaMnAs2Br,31.9599,29.9693,-1.9905
AlS3I,40.7044,29.1277,-11.5767
Be2CrSb,13.8417,12.467,-1.3747
Sc3AlAg,4.8675,6.0621,1.1946
CePrAs,9.3321,12.1449,2.8128
Ac3Si4Pb,37.8237,35.2086,-2.615
NaMo2(P2O7)2,14.9887,11.5556,-3.433
Zr2MnGaN,60.2996,49.5189,-10.7808
AlInSe3,28.865,25.5657,-3.2993
Tb3(YTm4)2,27.3822,28.9921,1.6099
Ti3AlGe,6.7953,7.8325,1.0371
CrOsI2N,37.8681,31.3518,-6.5163
Na2CaIn2,16.5451,15.9426,-0.6025
K2Sb2P,20.0471,16.8501,-3.197
SrAlAg3,19.1148,15.6927,-3.4221
CaTl4W,41.9323,43.1214,1.1891
TaPt2Au,58.8798,49.9647,-8.9151
RePt2Pb,68.2039,58.0605,-10.1434
KYBeO2,20.7762,18.5558,-2.2204
CaYEr,22.801,20.3878,-2.4132
ScTa,79.0014,62.7703,-16.2311
LaCe(ThSb2)2,47.4805,41.9802,-5.5003
MnVCSe2,78.5236,59.1961,-19.3275
InIr2Os,37.3553,41.4649,4.1096
BaYF6,17.6614,15.3271,-2.3343
AcTb4Tm,29.1872,32.4908,3.3035
CaAc2SO8,21.9461,21.7315,-0.2146
Tc2P,54.1252,49.8031,-4.3221
TcP,22.5126,24.8887,2.3761
Al3VSe,37.9536,30.8264,-7.1271
PmReN3,35.9091,37.6866,1.7775
RePtPb,61.4304,54.1774,-7.253
TaMnSi2,41.501,34.4202,-7.0808
HfScPd3,43.9144,34.4358,-9.4787
Ta2MnSi,47.077,44.143,-2.934
AlV3Ga,59.113,46.9798,-12.1333
TmLuGaAg,25.5202,26.0553,0.5351
SrSi3Rh5,31.0983,20.4581,-10.6402
VSe,54.4788,40.2253,-14.2536
ScTcTe4,70.3228,60.579,-9.7438
SrTl2B,26.3684,28.7416,2.3732
AlV3Tc,89.0594,69.9221,-19.1374
SbTe2NF,39.3848,33.9129,-5.472
LiSc2Ti,4.4134,7.2672,2.8538
NaScS2,44.0013,36.0687,-7.9326
BaY2F,32.8948,27.2059,-5.6889
Nd3Sm2YEr6,26.1842,27.8109,1.6267
LuPuGaAg,36.0969,36.3788,0.282
CuRhCl4,12.1488,10.2494,-1.8994
Er3Ni5O12,-0.0,0.0,0.0
La2Cu(H3Pt)2,28.3361,20.1717,-8.1644
RbInSi,4.0291,10.687,6.6579
Y6Si2SbSe3,33.8807,28.5745,-5.3063
SrWN3,16.7308,14.356,-2.3748
Ga2Ag5,21.9077,17.3718,-4.5359
Pa5Fe2,49.0602,49.2936,0.2334
Ba5Ga2,2.4332,1.9691,-0.4641
Ac5Ga2,44.3247,47.0291,2.7044
Al2GeN,8.2398,8.31,0.0701
NaInPb,29.5432,29.4558,-0.0875
BiTeP2,26.5505,27.3279,0.7774
ZnTeW2,32.3704,34.7846,2.4142
Tm2BAsRh6,41.655,33.4481,-8.2069
NaTe3Os,38.9163,36.6032,-2.3131
Ba(SrGe)2,5.7142,7.9865,2.2723
CsPu(SbO4)2,25.0528,24.0882,-0.9646
V2Sn2Se,63.6476,51.4203,-12.2273
Pa2BRu6C,33.073,33.236,0.163
LiW4Au,34.2466,38.1696,3.923
Na2S2O3,7.6048,6.4006,-1.2042
RbInSi,9.223,10.687,1.464
RbInSi,9.2246,10.687,1.4624
Rb2In2Si,9.3979,8.631,-0.7669
FeRhAu,32.2297,29.4174,-2.8123
Cr2TcI,27.7716,24.2018,-3.5697
RbCo3Si,9.6789,8.6711,-1.0078
Rb3InSi,8.5713,6.8479,-1.7234
Nd3AlZn,12.7921,15.6512,2.8591
TcP2Pb,32.0665,30.8439,-1.2226
TcPPb2,46.5545,44.3336,-2.2209
HfZr3Al,89.1393,70.3404,-18.7989
ZrAlTe3,40.0063,36.2252,-3.781
BeBi3Pb,44.6601,44.9799,0.3198
Rb3CoSi,6.3629,4.7755,-1.5874
FeRhAu2,36.0984,34.4878,-1.6107
RbIn,8.9097,10.361,1.4512
MnPRu3,31.7227,28.5608,-3.1619
TcPPb2,51.1904,44.3336,-6.8568
Al2AuN,14.0942,15.8812,1.787
MnNi(H4Rh)2,25.5642,20.5164,-5.0478
SiNiOs2,26.3796,28.3639,1.9843
LaNiIr4,30.7759,33.4415,2.6656
LiPtBr,41.9276,34.1751,-7.7525
BaYF6,17.6728,15.3271,-2.3457
Na2Y(SnS2)3,41.498,31.2912,-10.2067
NaLaCu10,11.9396,11.1856,-0.7539
CoNiC2,45.6316,32.3936,-13.238
BeC2,34.8219,29.4592,-5.3627
Na3ReO6,11.9603,11.346,-0.6144
KGeP2C,19.7714,15.1087,-4.6627
Pr2SmSb,14.7582,14.986,0.2277
PrSm2Y7,15.2099,16.4998,1.29
AlPb2Au,39.0098,41.7741,2.7644
AcAl2ZnCu4,15.1319,14.693,-0.4389
FePbCl4,13.1401,13.5714,0.4313
Nd2SmYTm5,22.5589,25.4443,2.8853
RbZrSi,33.0257,28.6184,-4.4073
Pa5SiSb3,45.6833,46.0737,0.3904
Nd3Sm(YTm3)2,25.9026,27.5328,1.6303
ErPu3N4,29.7065,31.2722,1.5657
Nd3Sm2Y6Tm,19.8251,21.4525,1.6274
Na3ScSb,27.0876,20.9535,-6.1342
Nd3SmYTm,19.1446,22.4467,3.3021
Nd4Sm2YTm2,24.8865,26.8352,1.9486
CaInPb2,32.2266,34.2635,2.0369
HfBe10Rh,15.8621,12.6461,-3.216
LuHfGaAg,54.01,43.2625,-10.7475
Ac3PmSi3,32.1108,31.7209,-0.3899
In12P5Pb3,10.542,12.1348,1.5928
HfNb2HgH,85.2822,67.2893,-17.9929
V2PbSe,89.964,73.7288,-16.2352
LaPr2Rh,22.6739,16.558,-6.1159
CsZnP,8.6041,11.0195,2.4154
LaTaAl2,23.6834,22.3169,-1.3665
Ba3Li2(InPb2)2,23.9122,24.4309,0.5187
Pu5(HfH)2,61.003,53.8677,-7.1353
Y8Te4As3Pt,23.5043,22.5684,-0.9359
Sr2Ti2Os,14.1806,16.0878,1.9072
VGaSe3,56.8273,45.2202,-11.6071
K2LaPaO6,11.3572,13.6122,2.2551
Mn3Tc,97.8159,76.4355,-21.3804
La2PmSb,42.7208,32.8288,-9.892
LuPaCo,35.8259,38.9508,3.1249
GaAuCl4,11.429,12.2242,0.7952
SmYAgPb,30.2727,30.8351,0.5624
KNa3(SO3)4,15.8593,14.0212,-1.8381
La2BiSb,49.7959,40.4571,-9.3388
BaNaMg10,4.843,4.4788,-0.3642