Formula,E_hull_DFT (eV/atom),E_hull_ML (eV/atom),Delta (ML - DFT)
Pr4TlHg,5.5134,7.045,1.5316
La2Dy2Hg,31.3811,26.3259,-5.0552
Cu2AsRh,18.0648,16.0071,-2.0577
ThU3S4,60.937,54.2786,-6.6583
SiPdRu2,16.2866,13.944,-2.3426
RbVTe3,46.5281,41.2171,-5.311
PaAl2GaPd4,19.7445,21.6054,1.861
AlTl2Rh,38.7315,36.1334,-2.5981
Pm(Ho2Hg)2,19.656,21.7656,2.1096
AgSbAs4,19.8823,17.2383,-2.644
HfNi2Te,49.4265,40.2484,-9.1781
ScTc2Ag,93.4469,75.7403,-17.7066
KNb(PSe4)2,45.2041,37.0928,-8.1113
ScTcAg2,77.8877,62.6584,-15.2293
BeTcAg2,40.2179,32.253,-7.9649
Lu3ScS,39.6436,38.2588,-1.3847
CsBeV,49.274,40.1199,-9.1541
ZrTeAu2,58.5058,54.3338,-4.172
AlTlRh,34.7033,31.063,-3.6404
K2SmPuTe4,34.9439,34.836,-0.1079
TaRhW2,40.6613,41.7196,1.0583
AlTlRh,34.0549,31.063,-2.992
PrTlAu4,38.8011,40.4457,1.6446
PrDy4Ho,22.7609,25.1822,2.4213
PrThAu4,41.0193,43.2108,2.1915
AlTl2Rh,38.7055,36.1334,-2.5721
K2NiOs,18.7902,19.4511,0.6609
ErNbP,34.0706,34.1621,0.0915
NbBi2Mo,61.9701,58.3475,-3.6226
Y2HfPdN,66.1098,50.8049,-15.3049
AlVPS2,62.7085,46.4984,-16.2102
YSc(SnPd2)2,39.8701,35.0073,-4.8629
BaFeOs,26.8479,23.0143,-3.8336
BaNb2I,77.7345,64.9904,-12.7441
La2Nd2Os,32.6279,29.675,-2.9529
TaRh2W,43.2067,40.1579,-3.0488
Ce3PuS4,44.7759,37.7355,-7.0403
Ge2MoRh,20.4877,19.0762,-1.4115
Al3FeAu,11.9734,13.2545,1.2811
Mg(MnCd)2,44.1779,36.0191,-8.1587
NpInRu4,25.8414,28.9253,3.0839
LiRe3,30.3915,34.9879,4.5965
TbCeYPb,29.3971,32.3209,2.9238
Sc3AuN,17.2029,12.5387,-4.6642
BaFeAsSe2,37.0674,31.9181,-5.1493
TaMoPb,36.2309,39.7754,3.5444
BaHgAs2Os,13.9675,14.4706,0.5032
YBP3,42.2983,34.6297,-7.6686
CaRuW2,34.9273,33.1709,-1.7564
Y(AgTe)3,28.869,26.0593,-2.8096
Ac2Al4ZnSi3,31.1686,27.4634,-3.7052
BeTlS3,45.5343,35.6736,-9.8607
SrBiIr2,38.4191,38.6329,0.2138
CeY3Al8,22.2127,17.8431,-4.3697
Be2PIr2,16.9958,18.8965,1.9008
YCo2BiSb,41.862,35.4282,-6.4338
NdY3Al8,22.4608,17.8124,-4.6485
SrGeBi2Mo,30.0949,31.0863,0.9914
Ba2GdAsO6,2.3703,4.2486,1.8783
TbY3Al8,22.3263,17.9753,-4.351
ZrPbS2,46.8573,37.5695,-9.2879
RbSm(PO3)2,1.6433,0.9046,-0.7387
RbSb(PO3)2,11.1307,8.1192,-3.0115
BaRe3As,36.8391,33.5392,-3.2999
La2PmHg2,21.7101,17.398,-4.3121
Be3TlS,22.2323,19.5295,-2.7028
Tm4In2N,22.5453,24.9506,2.4053
Ba2LaAs,16.3055,12.5922,-3.7134
BaAsP2,11.4285,10.0789,-1.3496
IrOs3W,93.9445,79.8202,-14.1243
Pa2VGa3,41.4004,40.1883,-1.2121
Ba2LaAs,16.2378,12.5922,-3.6456
ReP5,24.1323,19.6931,-4.4391
Nd3YAl8,14.5463,13.6405,-0.9058
PrSmTh4,47.4651,50.3383,2.8732
CsTlC,43.1731,37.6426,-5.5304
YBeCl,53.7846,51.3286,-2.456
CsTlC2,48.018,38.7161,-9.3019
Pm3YAl8,13.8995,13.6716,-0.2279
La2Pr2Tm,20.1676,15.9382,-4.2294
YPu3Al8,25.8586,25.6366,-0.222
BaAsPb2,28.7801,30.0026,1.2225
LaAgPb2,43.0296,39.1357,-3.8939
Hf3TlP,96.9585,71.4829,-25.4756
Ba3GeAs,4.1701,4.676,0.5059
TmBeNi,14.8525,15.8168,0.9643
Tl2CdI4,30.0088,30.3481,0.3393
Zr(MoRu)2,24.8396,25.5748,0.7352
ZrAlTc,66.566,55.3292,-11.2368
LaAgPb,40.5234,35.0733,-5.4501
La2CeS3,40.8451,29.817,-11.0281
ZrRe2Te,55.2379,53.6248,-1.6131
LaScTa3,78.0823,65.7657,-12.3165
HfTl2(TeS3)2,60.5639,47.85,-12.7139
Re2IrOs,41.2821,47.2418,5.9597
Tl2ZnS4,47.8691,39.2988,-8.5703
BaHg4As,1.7095,2.4154,0.7059
LaAgPb3,48.2415,43.9372,-4.3043
BaAcAs2,20.6567,22.4559,1.7992
BaCrAs,12.4446,11.7201,-0.7245
ZrTiBr2,28.8761,24.4023,-4.4739
CsGaO2F,20.8085,18.359,-2.4495
Pr4SmTm,6.1052,9.0126,2.9074
Sr2NbSe2,48.1092,44.1617,-3.9475
ZrAlTc2,72.8166,60.7214,-12.0951
CaSi2Ni,11.506,6.9938,-4.5122
La2Tb2Er,32.5059,28.1251,-4.3807
La2Al2Os,24.2175,20.3484,-3.8692
La2TbTh2,52.4418,48.7955,-3.6463
La2TbTl2,41.8073,37.3333,-4.4741
La2TbTm2,34.5811,31.7411,-2.8399
LaAlOs,32.4038,29.2268,-3.177
PmPrTm4,23.7888,26.8533,3.0645
Rb3U2Ni3S7,30.2971,26.1941,-4.103
Ba4Te3As,15.9991,15.967,-0.0321
Ti(TlS2)2,47.2551,38.5252,-8.7299
BaAcSbAs,29.4301,28.3885,-1.0417
Li5Ir,7.5937,9.4319,1.8382
MnCu2Br,34.7682,27.9596,-6.8086
K2ReNi,37.6761,25.9633,-11.7127
Ca(SbPt)2,50.0695,35.9793,-14.0902
Co(HRh)3,16.6566,11.2969,-5.3597
NbTeSe4,62.4129,52.1501,-10.2628
Ba2AsW,13.8678,15.1265,1.2586
BaTe2As,23.7776,23.5177,-0.2598
ScVI3,40.645,34.9993,-5.6457
Ca(Dy3S4)2,39.5243,33.2022,-6.3221
EuCuSi,4.3173,6.6087,2.2914
Pr2Ga3Au2,13.2378,14.4928,1.255
Ta3MoPb,38.3322,40.5442,2.212
PaTl2(AgS2)2,50.2845,42.538,-7.7464
Li2LaTa,18.7873,18.3351,-0.4522
TiAlSb,19.3703,16.5362,-2.8341
KWSe,34.0448,31.5689,-2.4759
KAgW,72.6062,55.104,-17.5022
Sr2HfSc2,32.503,26.1458,-6.3571
BaZrBr2,30.2718,26.791,-3.4808
K2ErBiSe4,36.3288,32.5562,-3.7726
BaP2IrS,31.8681,27.1276,-4.7405
BaZrBr,36.7082,31.1089,-5.5993
BeRe2RhPb,37.7629,36.2549,-1.5081
La4SmDy,43.281,33.1827,-10.0983
HgSb2C,34.5602,25.2626,-9.2976
LaSm2Er5Sc,23.8885,24.5846,0.6961
BeTeRhI2,35.8294,32.3429,-3.4865
Sm3Y8Pu,22.0786,23.6631,1.5845
ZnCdIr,28.8627,25.7596,-3.1031
CaBeRh2,33.1887,22.5481,-10.6405
BeAsRh2,25.2345,18.5531,-6.6814
Be3TlRh,20.3089,18.4111,-1.8978
MnBe2Rh,36.7018,29.1995,-7.5023
Mg2RuN,24.6498,25.0011,0.3512
Be2CrRh,14.4477,12.2991,-2.1486
Zn2Cd2Ir,20.3269,19.3283,-0.9986
BeSb2Rh,34.9751,26.7812,-8.1939
BeRh2Se,36.4665,27.694,-8.7726
BeSn2Rh,21.8132,18.4185,-3.3947
BeSi4Rh,25.8592,17.3023,-8.5569
GaReTe3,35.5729,34.277,-1.2959
Bi4PtAu,54.807,52.3802,-2.4267
Th4PtAu,59.1514,58.0227,-1.1287
NaBe3Ni,6.5085,6.9951,0.4867
ZnCd2Ir,26.4335,24.1683,-2.2652
Sc3CdPb,17.6644,19.3315,1.6671
Ti3PbF,16.3765,17.5606,1.184
Cu2SbPd3,19.2902,18.3482,-0.9421
Be2ReRh,22.3967,21.8904,-0.5063
Be2TlRh,25.376,23.2825,-2.0935
KNa3Pb,22.2016,19.9038,-2.2979
Rb4TlAu,12.3372,12.8057,0.4685
Rb4CdAg,6.0248,4.7868,-1.2379
Rb4PbAu,11.8058,12.2276,0.4218
LiMoAsBr2,17.188,16.9507,-0.2373
SnMoSe2Br,42.2404,31.7563,-10.4841
PtPb4Au,57.721,53.8326,-3.8884
Cu4SbPd,15.2679,14.7749,-0.493
BeTe2Rh,33.7447,29.7014,-4.0433
RbAgPb4,37.3978,37.7873,0.3895
Be3SbRh,19.1681,15.042,-4.1261
HfOsRu,56.9376,49.18,-7.7576
Zr3RuPt,80.7499,64.9112,-15.8387
SrTcAg2Br,38.6594,30.3076,-8.3518
BeRe2Rh,32.6771,32.6747,-0.0024
Mn2NbI,85.6795,67.5826,-18.0968
NiPdC2,38.0109,29.4403,-8.5706
Hf3CrNi,98.5286,70.7057,-27.8229
BeCrTcRh2,41.836,31.3084,-10.5276
Be3SnRh,16.8608,12.4471,-4.4136
MnBe2Rh,31.584,29.1995,-2.3845
Zr(ScSn)2,36.3249,28.9165,-7.4084
LuBeRh2,32.2571,26.7189,-5.5381
Tl3RuS4,49.2559,42.4961,-6.7598
Si2PdRu,19.4417,15.6596,-3.7821
RbSrFe2Bi,24.4954,21.7161,-2.7793
BeTlRh2,37.2719,31.3729,-5.899
EuGaAs,8.0381,10.5743,2.5362
RbNbI2,47.7198,40.9075,-6.8123
Zn2Te,19.2142,19.1004,-0.1139
Ac3Pm,54.6209,57.2063,2.5854
Sc6AlAs2,16.9555,13.7798,-3.1757
ScSeI3,24.7425,23.25,-1.4926
Mg3BiH8,8.2294,7.9766,-0.2527
Tb2BeGa,15.8932,18.2555,2.3623
TcAg2Br,42.3729,34.6159,-7.7571
Ca4ScCo,10.6438,8.5532,-2.0906
TaMoAu2,36.8233,39.929,3.1057
Mg2GeC,19.5604,15.8508,-3.7095
LiReTe,27.7095,29.5693,1.8598
Tl2CdReS,68.2673,55.8015,-12.4659
Mg2BiH6,9.4629,9.019,-0.4439
ZnFe2Br,7.2919,8.0548,0.7629
RbBiI4,23.9734,24.9945,1.0211
Rb4Nb3Pd4,46.2435,39.8882,-6.3553
Zn2FeBr,11.2323,8.3387,-2.8936
Th5U,66.665,69.4508,2.7858
Zr6In3Os,61.8626,53.4152,-8.4474
EuNiBr,7.4463,11.4923,4.046
SrTi2Te,12.3625,14.291,1.9284
TaTiTe,20.1177,25.7307,5.613
La(TlBi)2,48.1625,46.7056,-1.4568
Hf2InPb,89.9615,69.363,-20.5985
Sr2TiTe2,19.5607,19.8563,0.2956
Er(Fe2B)2,0.9272,2.4757,1.5485
LaPm2Pr2Nd,15.059,15.695,0.636
Ca2IrSe,53.0545,39.9707,-13.0838
La2InI,35.8806,28.0911,-7.7896
Sr2SiPb,34.3037,29.1812,-5.1225
LaNp2(TlS2)3,55.9174,47.5736,-8.3438
AsRu2Rh,36.6283,28.8947,-7.7336
LiAlPb,22.6868,21.9751,-0.7117
Np2MnRu,64.3435,61.6981,-2.6454
SrSiPb,41.6062,34.0357,-7.5705
CaIrSe,59.8802,51.1116,-8.7686
CsY(WO4)2,10.5885,10.0042,-0.5843
NpBiRu2,39.3451,43.3231,3.978
NpOs2Ru,42.4249,46.8624,4.4376
NpTlRu2,38.4402,41.6375,3.1973
Si4OsRu2,23.2934,17.928,-5.3654
TiFeBi2,25.7091,27.531,1.8219
La3(NdGe)2,31.3137,25.7765,-5.5372
NpOsRu,42.9998,47.2474,4.2476
Np2FeRu,56.9133,52.1276,-4.7857
AuCI3,36.9718,32.743,-4.2288
Zn2MoI,14.4675,15.2056,0.7382
NpOsRu2,36.2653,41.0693,4.804
Ba2BSe,8.3355,9.4537,1.1182
SrSiPb2,40.5557,36.8968,-3.6589
KTl3Ru,37.7101,37.9402,0.2302
NiBIr2,23.4983,27.843,4.3447
PaGa2Ag,28.7812,29.1505,0.3694
BSeO3,10.2282,8.9584,-1.2698
GeOsRu2,20.8474,25.3965,4.5492
Cd2FeSe,21.9274,20.553,-1.3744
Pr2(SmCd)3,15.2007,16.6978,1.4971
LaCrIn2,26.463,24.6226,-1.8404
Np2IrRu,54.5647,54.7509,0.1863
ThNpRu2,41.9633,46.1789,4.2157
NpRu2W,54.8575,48.0283,-6.8292
NpPa2Ru,55.1278,58.9105,3.7826
Ac2Ge2Pb3,43.1703,44.7531,1.5828
TiCuOs2,16.1344,22.8864,6.7519
AlPOs2,38.5363,36.8935,-1.6428
HfCu3Ni,34.647,27.2356,-7.4114
Na3(Sb2Pd)2,32.2382,25.9356,-6.3026
MoPbAu2,41.0482,42.8246,1.7764
B2Ir2Os,17.9421,23.9692,6.0271
EuGdNi,22.866,23.1772,0.3112
EuLuNi,22.4814,24.8242,2.3428
EuCu4Ni,10.2387,11.9646,1.7259
DyEr2InN4,12.4088,14.9679,2.5591
Eu2NiOs,26.4464,28.9139,2.4676
Eu2TcNi,39.3127,36.5325,-2.7802
B3RuPb,15.1514,16.8341,1.6827
Eu3TlNi,28.2198,29.315,1.0951
EuGdNi2,19.8784,19.3848,-0.4937
EuBeNi,11.429,13.7398,2.3108
RbTl4Pt,46.1675,42.3327,-3.8349
Sm2ThNb,65.0022,61.5378,-3.4643
AlZnRu2,10.6872,15.0041,4.3169
NaCu2Sn5,40.3218,35.3931,-4.9288
EuLuNiPd,21.0328,23.6187,2.5859
Nd2Y(ThS2)3,48.2723,41.5888,-6.6835
TaMoAu2,36.7732,39.929,3.1557
EuNiRh,27.6312,24.4858,-3.1454
PrIn2Ge,12.547,13.2829,0.7359
YTeAu3,39.8025,40.1814,0.3789
Cs2AuIO,33.8064,31.3517,-2.4547
CaTa2Os,30.2701,34.977,4.7069
TbEuNi2,16.7606,19.3063,2.5457
EuHfNi4,32.5485,27.8324,-4.7161
Tb8Dy3Y,26.4631,27.8697,1.4067
TaMoPb2,40.0959,42.6858,2.5899
K2HgI4,15.653,15.7218,0.0688
Ag2HgBi,29.3594,25.9905,-3.3689
ScInPd3,19.2318,18.888,-0.3438
LiPrYZn,6.6901,6.7818,0.0917
Pr2Nd3Ge2,11.3337,13.9372,2.6034
Al2ZnCl,2.1595,3.6501,1.4906
YGa4NiRh2,36.6586,30.9524,-5.7062
LaCe2ScS4,44.5425,35.9397,-8.6029
YCu(SnRh2)2,48.44,37.1279,-11.3121
AlZn2Cl,5.5926,6.7061,1.1134
Tb3YPt8,66.4204,48.9096,-17.5108
KAgBi,32.4925,30.2687,-2.2238
Mn6Al2Rh,72.4435,55.4026,-17.0409
TaTiBr2,16.4046,19.0741,2.6695
La2YC,47.6069,35.714,-11.8929
Tm2PtC,52.1534,42.4778,-9.6756
ScMn2Ag,53.2936,41.1044,-12.1892
Cu(IrS2)4,48.5516,39.4704,-9.0812
ReAgW2,70.6955,61.0481,-9.6473
ZrTlFeS3,46.0795,38.5079,-7.5716
Tb6Pm3Dy2,26.5199,28.1566,1.6367
Sr2Tl2Sn3,26.9148,28.1368,1.2221
K3GaS3,25.763,19.8514,-5.9117
Be(AgSn)2,23.8985,19.1533,-4.7451
ReAgW,81.2177,67.4987,-13.7191
SrBePb,28.462,24.5329,-3.9291
NdPu2S3,54.6667,48.5864,-6.0803
Sc(AlRe)2,27.7993,26.0405,-1.7588
Re2AgW,70.8696,62.5468,-8.3228
Li2AgSb2,24.1731,19.2403,-4.9329
SrBePb,28.2475,24.5329,-3.7146
TaMoPb2,40.0726,42.6858,2.6133
BaY(AgSe2)2,44.9754,36.1274,-8.848
Y4ErAl5,33.8379,26.4917,-7.3463
TaMoPb2,39.6374,42.6858,3.0485
TbNd2ScS4,41.3614,35.1973,-6.1641
NaPd8,18.5275,20.0275,1.5
Gd3In3Si2Au,24.3675,24.1526,-0.2149
Cs4SbSe5,37.5495,32.3333,-5.2162
InFeSe,26.554,22.0053,-4.5487
Cs2TlSF6,19.2318,17.8449,-1.3869
RbSrCd4,16.8902,15.8503,-1.0398
Se2IBrN,29.1061,24.1534,-4.9527
Cu2IrPd,18.8001,21.4518,2.6517
Tl4IBr2,35.2486,35.3923,0.1437
Y2MnTc3,113.9016,92.4768,-21.4248
CsSb3Ir,43.0176,36.6521,-6.3655
KLaAl,22.5015,17.5064,-4.9952
Lu2NbPb,65.2985,61.0961,-4.2023
LiTmInHg,14.5678,15.5874,1.0196
NaPuAgGe,34.2767,32.3325,-1.9442
Co2BiIr2,24.3995,29.7827,5.3831
CsGa2Sb,18.7839,17.851,-0.9329
Sb2IrBr,43.952,40.0953,-3.8567
Y2BeSi4Ir3,37.3384,32.7805,-4.5578
NdY2(TlS2)3,54.73,48.4815,-6.2486
RbTc,15.1082,13.4229,-1.6853
MoF,0.0,0.7627,0.7627
YNb3Si,103.1738,84.5422,-18.6316
Bi2SbSe2,46.531,41.4294,-5.1016
RuAu,14.7488,23.1426,8.3938
Rb2SrTc,26.4658,22.223,-4.2428
VPb2I,61.099,54.8868,-6.2122
RbSr3Tc,27.5186,24.1132,-3.4055
Zn2RuPt,26.2641,23.447,-2.8171
MoRu2Pb,26.9566,28.937,1.9804
Zr2Cr2Mo,36.8345,32.5219,-4.3126
Rb2MnVCl6,19.7462,16.2529,-3.4933
NaDy2ScTe4,31.3595,29.8277,-1.5318
LaFeO2,34.8523,30.6806,-4.1718
YTmSeO2,34.2359,27.7749,-6.461
ScTeS2N,40.1804,34.1071,-6.0733
RuPbBr2,35.6983,29.7921,-5.9063
Mo2PdBr,19.3183,17.892,-1.4263
GeMo2BrF,19.9329,19.2104,-0.7225
Sr6In2Co,13.9824,15.2115,1.2291
Cs(GaSb)2,26.0041,22.4819,-3.5222
Mo2RuPb,28.4719,28.976,0.5042
HfZrOs2,71.733,63.5122,-8.2207
Sc2SbAs,29.7142,23.514,-6.2002
Ce2Pm(TmS2)3,40.2841,33.6444,-6.6397
Mn2AlRh,62.3175,47.8909,-14.4266
NdSbPt,51.919,41.5068,-10.4122
CaAg,18.0355,15.114,-2.9215
LaMo2I,27.2338,24.5394,-2.6944
LiAg3Pb,29.8596,25.2325,-4.6271
NbBF2,39.8061,34.5936,-5.2125
LiSi2PtO6,10.2956,6.7511,-3.5444
YbIn2Ru,18.0926,21.2321,3.1395
CeNi6,0.0,0.0,0.0
Sc2AlRe,35.7916,28.9405,-6.8511
CdNi6,0.0,0.0,0.0
Ba(AlAu)2,23.1735,22.3395,-0.834
NaScMn2,53.966,46.1219,-7.8442
AlGeRh3,40.1813,28.7232,-11.4581
LiTi2Sb,8.6663,10.8339,2.1676
Y2ErSc7,9.8542,11.3405,1.4864
LiDy(SiO3)2,2.1883,2.4304,0.2421
CaMn3Pb,72.7198,57.8293,-14.8904
Cs3HfRh,54.4849,42.1385,-12.3464
TlSbTe2S,48.4564,41.9384,-6.518
CuAgP2N,27.7551,20.6848,-7.0703
Re(BTe)2,26.368,27.0431,0.6751
Pm2SbF,24.4808,24.3834,-0.0974
Y2ErUO8,20.5864,21.371,0.7846
Nd3Tl3Ge2Rh,32.1288,32.2661,0.1373
KH4F5,0.0,1.301,1.301
CsSrGe3,14.4898,15.2068,0.717
CaReTc,46.5415,43.6006,-2.9409
Zr2CrMo,55.417,48.7589,-6.6581
Sr3TeRu,20.1034,20.3254,0.222
BaAl5Au2,17.9017,17.4046,-0.4971
Cd2Ge2Rh3,28.7854,23.6177,-5.1678
Sr2Tl3Cd,32.2308,32.322,0.0912
Ge2PtRhAu,41.555,33.4381,-8.1169
LiAl4V,21.0193,17.9241,-3.0952
Tl3BiS4,54.0094,46.5589,-7.4505
LaBe2Mo,21.2571,15.8171,-5.44
Tl3RuS,46.1593,43.0577,-3.1017
Tc,0.0,59.6172,59.6172
SmCo4Ir,18.6063,19.5049,0.8986
CaCo2Os,21.8947,20.7105,-1.1842
CrRe2Te,33.3541,35.144,1.7899
MnSi3Ru,35.29,24.5215,-10.7684
Sm5Ho5Er,27.2126,28.6939,1.4813
RuBrF2,16.4349,14.473,-1.9619
CaFePb2,43.1415,40.8749,-2.2666
Pm2PuInN4,17.1736,19.401,2.2274
CaTb2(TlS2)3,44.6188,37.6977,-6.921
ScGeSeS,35.5989,29.9424,-5.6565
Ti3SbI,17.3649,16.2725,-1.0924
La6NdAg,46.0522,32.3044,-13.7479
RuAuC2,50.4893,42.5302,-7.9591
Cr2ReTe,25.4997,25.6512,0.1515
YAuS2,36.7528,32.1485,-4.6043
Tl3Cu2WS6,45.2287,38.0509,-7.1777
RbGaN2,6.755,7.6064,0.8514
LaBeMo2,26.2393,20.0481,-6.1912
K2Rb2Bi,14.4418,14.4291,-0.0127
Sr2BiAs2,23.4135,19.4968,-3.9168
LaBeMo2,26.137,20.0481,-6.0889
AlCd2GeTe,27.3588,23.9914,-3.3674
HfGeIrRh,60.772,49.0417,-11.7303
Ni2P5,3.7844,4.9641,1.1797
Co2Pt2Pb,50.7413,39.5646,-11.1767
CaDyEr,20.6665,23.2686,2.6021
YEr3Sc7,12.7862,14.5583,1.7721
Be2Ru,-0.0,6.2481,6.2481
LiHfNi2,38.9442,30.0167,-8.9275
Ta3PdN,32.7379,27.2288,-5.5091
Y8ErSc2,13.839,15.3087,1.4696
CaFeTc2,63.5057,52.15,-11.3557
Li(Co2Se)2,18.429,16.5711,-1.858
Tm6Sn3C2,32.889,30.3809,-2.508
LaGdO4,21.6985,22.991,1.2925
TbHfTi,51.6299,41.6706,-9.9593
CuSi2As3,24.8083,21.1875,-3.6209
Sc2CdTe2,20.551,19.1991,-1.3519
NiO8,2.85,3.5642,0.7142
CuSi2As,23.4072,18.419,-4.9882
PrThIr,34.4564,38.2744,3.818
PrTmPd2,16.4681,17.7086,1.2404
Sr(LiSi)2,18.3917,13.5404,-4.8513
Cd(InTe2)2,32.1055,31.6731,-0.4324
CsInTe3O8,16.1262,14.1624,-1.9638
RePdPb2,41.4024,43.7568,2.3544
SbTe2MoBr,40.6719,35.7193,-4.9525
TbTm2(PuS2)3,51.8433,44.9531,-6.8902
YEr2Sc,13.9894,18.3651,4.3756
TbTm2(PuS2)3,51.8429,44.9531,-6.8898
InReTe,34.4336,35.5279,1.0944
Cd3Au8,39.6222,40.5681,0.946
Cs(BaSn)2,9.8545,12.3866,2.5321
Zr2TlTe,72.0863,63.6104,-8.476
CuAsRh2,28.5852,22.8214,-5.7638
Zr2TlTe,72.1463,63.6104,-8.5359
Na2TaCrO6,11.322,7.9025,-3.4195
TlZn2GaCl6,6.0559,6.7971,0.7413
Cs2SCl,26.2642,22.7858,-3.4784
AlPRh2F,35.726,26.3625,-9.3634
Ni3PdRh,18.6148,16.7107,-1.9042
Li2YPd,16.6609,14.5381,-2.1228
SrOsW3,93.6556,73.6686,-19.987
ZrTl2Te,60.4066,56.6789,-3.7277
Cd2WI,23.1036,25.1243,2.0207
Y2PbC,36.9636,35.385,-1.5786
HfRh3F,60.1054,42.62,-17.4854
HfRhF3,42.3751,30.4607,-11.9144
Rb3CaI,6.8043,6.8819,0.0775
YErIn3,17.944,19.7343,1.7904
Sr3(GeAu)2,21.5782,22.893,1.3148
PrSmC,26.8064,22.3107,-4.4956
SbRu3Pb,30.5203,30.3098,-0.2105
Fe2MoPb,23.2276,20.4443,-2.7833
Sc2TiTe,16.4134,17.4896,1.0762
SrTcOs,27.3435,29.1867,1.8432
Y3Er7In,25.1121,25.516,0.4039
Sn2Ge2Au3,28.8101,30.09,1.2799
Sn2Ge2Ir3,26.9967,29.2555,2.2588
Pm3Pr8,3.2921,4.9478,1.6556
BeMo2I,18.1335,21.8527,3.7192
YEr7In2,26.9663,27.8079,0.8416
Cs2PuZnCl6,13.7516,15.0625,1.3108
Y2Er3Sc7,12.7473,15.5285,2.7812
NaSmPa2N5,11.5432,15.5622,4.019
CrRhF2,17.4471,12.7079,-4.7392
CaRh2W,35.893,30.7447,-5.1483
Ce3Hg2Au,19.8476,21.7535,1.9058
Zr4MnS8,71.4351,54.8309,-16.6042
Li2SnI,10.7767,11.8999,1.1231
La(ZnSb)2,27.4084,21.8683,-5.5401
ZrCu3Hg,24.8396,21.3249,-3.5146
CaOsPb2W,91.6604,75.4256,-16.2348
Al2CuSb,12.2351,11.3006,-0.9345
ScBe2S,20.149,20.6976,0.5486
Ca2TiHg2,0.1573,2.3597,2.2025
In2Ge2P,12.8864,14.2589,1.3725
PmNdCu17,8.5353,9.661,1.1257
Y4Er5Sc,20.952,23.0387,2.0867
Rb3(LiS)2,9.9049,6.1164,-3.7885
CoTe6Os,37.5477,36.5079,-1.0398
CaRe2Rh,34.0161,33.0794,-0.9368
Li5(YSn2)2,17.7792,14.5633,-3.2158
MnBe2Tl,38.2336,33.5687,-4.6649
Rb2PuZnCl6,9.2914,10.3076,1.0162
HfGeRu,55.9263,44.8401,-11.0862
ScCdIn4,16.626,16.0442,-0.5819
TmInRh4,40.8055,32.1426,-8.6629
BeAlIr2,33.5392,32.0883,-1.4509
TeBr2,21.7691,22.3053,0.5362
Al3AgRh,18.6219,14.8269,-3.795
Pr12AlIn6,3.8739,4.2541,0.3801
AlCu2Pb,19.7323,19.1537,-0.5786
La4Ho11Er9,32.6738,31.1347,-1.5392
Ba3Hg2Pd,0.0,0.0,0.0
Cs2ReWI6,26.416,26.9267,0.5107
AlAg2Rh,28.5011,21.9215,-6.5796
AlAgRh2,32.7823,26.2767,-6.5057
Al2CrRh,10.5019,9.9952,-0.5067
CsZr,55.1829,44.7875,-10.3955
Li2AcCu2,15.7075,17.0925,1.3849
La4Pm11Er9,31.0417,29.5628,-1.4789
YEr2(PuSe2)3,46.5052,43.7786,-2.7266
CaTb2YRh4,35.2967,27.9997,-7.297
Rb2Se2I,20.8869,18.351,-2.5359
Cs4SmU3O12,14.353,16.1969,1.8439
AlCu5Sb,12.8931,11.5911,-1.302
ZrNi2GeO6,13.1852,12.0233,-1.1619
Rb2Se2I,21.3035,18.351,-2.9525
Zr2SbSe,65.7242,54.274,-11.4501
Dy2Y2Er5,25.4945,28.7336,3.2391
Li2CuGe2,5.079,6.6827,1.6036
Zr5IrOs4,69.7574,64.0749,-5.6825
ScCS2Cl,51.0632,38.1806,-12.8827
Dy2Y2Er5,25.4753,28.7336,3.2583
AlCuPb2,30.1464,30.3379,0.1915
Pr3(NdNi)2,15.0983,13.1022,-1.9961
CaPm2YAg4,26.4158,22.2882,-4.1276
La2Bi2Ru,39.5495,35.1661,-4.3834
RbLi3Ru,23.7604,20.3686,-3.3919
AgAsRh,30.1443,23.8074,-6.3369
La6CeYEr2,40.9723,31.1135,-9.8588
SiHg3Au,12.9316,11.8325,-1.099
Tl2CrAu,39.8323,40.1915,0.3592
NaCaCu2Ni,13.4695,10.5321,-2.9374
AgRhPb4,44.2797,41.779,-2.5008
YNiSn2,47.8358,42.7668,-5.0689
TiGeIr,3.7249,12.6393,8.9144
Tl3CrAu,42.2896,42.4535,0.1639
Tl2CrAu,39.755,40.1915,0.4365
Ge3(SeI)2,24.0758,22.3283,-1.7474
BaCa2Se,34.6482,28.131,-6.5173
BaSrPt2,47.6315,35.0766,-12.5549
AcHgGeAu,29.7827,31.4005,1.6178
Li2Ni5B2Pt,6.5382,7.489,0.9508
AgAsRh2,34.922,27.3808,-7.5412
Ir3AuN,36.4348,38.9346,2.4997
SrCdMo,7.2003,9.4512,2.2509
Ir3AuN,39.356,38.9346,-0.4214
IrAu3N,39.6119,40.056,0.4441
Al3CdAu,15.3295,16.4869,1.1574
Cu2PAu,20.9171,20.1771,-0.74
Sr(SnGe)2,14.7036,15.7797,1.0762
Ta6Bi2Au,42.335,45.8345,3.4995
SrCaLa2Cr,34.0228,24.3235,-9.6993
UF2,26.5525,29.538,2.9854
BaSn3Os,20.5608,22.3375,1.7767
KCe5S8,40.2948,31.7256,-8.5692
Te3Se,40.791,38.8371,-1.9538
Sc2ZnCd,8.9324,10.9936,2.0612
La2Pr6Nd3Al,12.7656,11.0475,-1.7181
BaSn2Os,15.1998,18.3914,3.1916
YErInPt,38.485,33.2755,-5.2095
Tb3CeS4,39.4629,36.0632,-3.3997
ScZn3Cd,9.9093,10.8884,0.9791
YAl3ZnNi,25.799,24.584,-1.215
Bi2PbAu,52.3425,53.9023,1.5598
BaHg4Rh,5.7228,4.4408,-1.282
YErPt,43.4811,36.3507,-7.1304
NaMgTa,17.0989,19.4573,2.3585
VPS2O,57.6606,41.9371,-15.7235
La2Nd3Dy2,33.1655,30.3739,-2.7916
Sc3TeS,11.8247,11.9328,0.1081
Y3(ErPt)2,39.1172,32.5757,-6.5415
NaMgTa,16.8639,19.4573,2.5934
Y3(ErAu)4,31.0688,32.5991,1.5303
K3Cd5Ag2,18.0571,16.6713,-1.3859
FePb2Se,41.1183,38.2233,-2.8951
CdPtBr,41.596,32.3009,-9.2951
YInPb3,39.0527,39.6913,0.6387
BeGeP2S,16.3773,16.2015,-0.1759
CuSb4Cl,32.6483,25.1263,-7.522
CsBa3Hg,5.4313,5.9212,0.4899
YEr2Au,29.6673,32.4728,2.8055
BiPb3Au8,49.1611,50.2558,1.0947
ReTe2Rh,43.8416,40.1578,-3.6839
Sm2Si4Ir3Os,31.4116,28.0801,-3.3314
Y2Er3Au2,29.5372,31.5336,1.9964
SrLuSn,22.2887,24.3668,2.0781
Li2Ga2Tc,21.9502,20.191,-1.7592
CaMoPd,11.8293,10.8108,-1.0185
ThCoSi,20.9411,26.0682,5.1271
DyAl(PO4)2,14.075,11.1986,-2.8764
La2Pr3Os2,24.548,22.1068,-2.4412
CdPt2Br,53.3274,39.957,-13.3704
FePb2Se,41.2083,38.2233,-2.985
YErAu2,33.5681,35.8331,2.265
YEr2Pt3,48.7506,38.827,-9.9236
La2Tb2Pr3,20.3246,17.5042,-2.8204
Y2ErAu6,37.0799,39.0545,1.9746
Dy5(YEr)2,24.8345,27.5417,2.7072
Tl3SiGe,35.9466,35.083,-0.8637
RbBeSb,15.3984,12.9679,-2.4305
LaThAg,49.7589,43.2007,-6.5582
Tc2TeMo,63.5755,53.8511,-9.7244
Tl(SiGe)2,20.0994,17.9397,-2.1597
TiBeRh2,33.2463,24.6872,-8.5591
Dy2Y5Er2,20.3261,23.5047,3.1785
Sb2AsF,27.0914,22.757,-4.3344
TbYEr2Th,28.1726,31.0842,2.9117
LaTh2Ag,53.8862,50.5738,-3.3124
Mg3BiH,14.6977,14.581,-0.1166