Formula,E_hull_DFT (eV/atom),E_hull_ML (eV/atom),Delta (ML - DFT)
K(SrRh)2,23.8453,19.3658,-4.4795
NaRuRh,39.5166,34.2417,-5.2749
Pd4Pt3,48.6868,37.1039,-11.5829
TiSn2Pb,33.612,29.6127,-3.9993
Ac2TbNi3Ge4,25.8857,23.9242,-1.9615
ReC2S,58.6636,45.5854,-13.0783
ReAsW,30.8798,35.534,4.6542
Tb2Y5Ho2,19.8944,23.3046,3.4102
AcZnPt2,62.2178,49.0763,-13.1415
Na4La3YTe8,36.3908,30.458,-5.9328
Ga4CuTc,18.7795,17.2396,-1.5399
CdReSb2,66.6488,53.877,-12.7718
K2NiAs,20.0258,16.5607,-3.4651
AcZn3Pt2,39.7162,31.7648,-7.9514
NpPaSe,61.5378,61.2117,-0.3261
ReAsAu2,36.7423,38.8471,2.1048
Co(Ni3Rh)2,18.0173,14.5261,-3.4911
ReAs2Au,27.4125,29.3864,1.9739
TaCdSb2,36.5418,32.9855,-3.5563
TaCdSb2,36.868,32.9855,-3.8825
BaMoBr2,10.8212,11.2821,0.4608
ZrCrSb2,49.0491,38.7961,-10.253
SiTcC2,49.5912,38.3428,-11.2484
ZrTl2Ga,48.3988,46.3792,-2.0196
ZrCrSb2,49.0837,38.7961,-10.2876
AcPa3(MnN3)4,33.0695,30.9888,-2.0807
La12Pb3N5,18.9541,10.5672,-8.3869
YTa2Ge,34.0187,32.5924,-1.4263
La6CoRh2,39.4868,25.087,-14.3998
Co(Ir3Rh)2,32.9505,34.4485,1.4981
Co(Te3Rh)2,39.3806,34.8332,-4.5475
ReAsAu2,36.4162,38.8471,2.4309
ZrAg2Ru,44.9883,38.2178,-6.7705
ZrAgRu3,38.5023,33.6378,-4.8645
ScInIr,20.2279,17.1671,-3.0608
CuSiRu2,20.4651,17.6581,-2.8069
CsCrP2,27.5569,25.3547,-2.2022
RhPb2Br,44.7722,40.0571,-4.7151
ReGe3P,30.9756,26.9118,-4.0638
Cr2CdPb,22.9295,23.0007,0.0712
Tl2OsCl,37.7104,38.7438,1.0335
NaInPb,32.2493,29.4401,-2.8092
YCrP3,14.0089,9.9413,-4.0676
TbNd2ZrAs4,25.3897,24.9291,-0.4607
Tl2CoTc,46.9653,46.2929,-0.6723
ZrPaAu4,58.7034,57.0898,-1.6135
ZrCd4Ag,34.3294,30.6581,-3.6712
ScHgPdRh,21.4678,17.4504,-4.0175
YZrPdPt,62.7079,48.6627,-14.0452
CrCdTe2,28.263,27.0861,-1.1769
Sr3La(YTe3)2,30.9678,27.3047,-3.6631
Zr7Os,91.3719,72.7471,-18.6248
CoCuTe4,41.8039,36.3144,-5.4896
KYBr,12.8703,13.9715,1.1011
BeSiRh,35.6355,28.0119,-7.6236
Li2ZrAg,32.6939,26.8113,-5.8826
TbErAlAg,22.2282,23.3302,1.102
CdCuSi2,15.3781,12.3359,-3.0422
CaTb2Nd,20.791,23.7961,3.0051
Ti(SbTe)2,31.5993,26.7443,-4.855
RuPtRh,66.3497,49.9136,-16.436
Li2ZrAg,32.8759,26.8113,-6.0646
ErSb2Au,36.3707,34.0605,-2.3102
AgTe2Rh,41.5211,35.785,-5.7362
AgTe3Rh,41.7908,35.2951,-6.4957
K2NiP2,6.9946,6.7299,-0.2647
Ag2TeRh,38.594,33.0688,-5.5252
TaCoAg2,47.9942,36.9887,-11.0055
CrRePb2,39.4563,41.3843,1.9281
AgTeRh,41.0192,33.8329,-7.1862
CdSb2Te,37.9273,32.2562,-5.671
Mn(CuGe)2,26.6098,24.008,-2.6019
CrRePb2,39.5608,41.3843,1.8235
Co(CuSi)2,17.987,13.0577,-4.9293
SiIr2Cl,26.9642,27.7583,0.794
Na(CePb)5,37.3185,37.9714,0.6529
Co2RuW,27.2922,25.4056,-1.8865
CrRePb2,34.225,41.3843,7.1593
CuSiIr2,28.3193,30.023,1.7037
CrRe3Pb,39.9558,39.9108,-0.045
PrNdPu4,51.5761,53.9871,2.4109
CoSbRh2,38.4073,28.5741,-9.8331
CrRe2Pb,36.0023,38.8874,2.8851
K3IrF6,7.5165,6.8875,-0.6291
Ce2PmPr,17.5788,20.8992,3.3204
LiCoOs,0.0,5.4355,5.4355
Ti6Te2Ir,17.0302,18.3606,1.3304
LaY2Te3,32.8957,29.5029,-3.3928
CaRe2Pb,35.4935,34.5122,-0.9813
Cd4Mo2O9,9.9963,11.1843,1.188
CaRePb2,38.1643,40.1664,2.0021
Ca3CrRe,21.8595,19.0232,-2.8363
Ca2CrRe,25.1251,21.9607,-3.1644
Ca2CrPb,27.3001,24.1215,-3.1786
Ca2CrRe,25.1277,21.9607,-3.167
TaCoAg2,47.8985,36.9887,-10.9098
Cs2Na2NpO4,17.2323,17.7428,0.5105
CaCrPb,34.769,30.2912,-4.4778
KCu2N,2.2025,4.5023,2.2999
CaCr2Re,25.982,22.9139,-3.0681
CePm2Pa,35.7885,40.0849,4.2965
Ge2OsSe,27.8702,27.3227,-0.5475
Tl3ReW,48.1275,49.5093,1.3818
Ga2SnPd4,14.9199,14.7277,-0.1922
Cu3TeAu,22.6078,22.6932,0.0854
Mn2AuN,54.2747,47.2747,-7.0
CuTe2Au,34.5758,33.6864,-0.8894
HfGa2Si,43.9544,33.2353,-10.7191
Al2CoCl,17.0241,11.8166,-5.2076
YPS2Cl,56.3522,52.1334,-4.2189
PrNd3Pt,31.4694,26.8721,-4.5973
In2RuAu2,30.6668,32.2824,1.6155
TiFe2Te,7.4695,8.2067,0.7372
Y2Ho2Pu2Mn,47.1031,47.3073,0.2042
CeY,19.4947,23.0299,3.5352
ScCrSb2,28.1458,26.7881,-1.3578
InRu2Au,24.9704,28.3402,3.3697
Rb2NaLu,16.1087,14.7793,-1.3294
SrIn4Ni,19.7425,17.8729,-1.8696
K3HfCr,39.3455,29.0861,-10.2594
Er4Al12Fe,8.5869,10.1409,1.554
CdSbAu,37.1574,35.4233,-1.7341
Dy4Al12Fe,8.1105,9.9572,1.8467
Y3SnBi,31.9114,29.2868,-2.6247
Tb2Sm2YMg2,18.0028,19.6979,1.6951
Tm4Al12Fe,9.0882,10.5631,1.4749
NaBe3I,18.8869,19.0559,0.169
KMgTc,36.6425,32.1088,-4.5337
Ho4Al12Au,11.0799,12.5181,1.4382
CeSmGd2,27.3248,30.4544,3.1295
Ti2TeIr,23.6715,26.2257,2.5542
MnAu3N,49.2634,46.3371,-2.9263
Sr2MnAuN,34.3514,31.5037,-2.8477
LiReRh,29.9232,27.5977,-2.3255
YHfMn,60.5733,46.5378,-14.0354
NbAlPd,46.6843,42.0692,-4.6151
RuAuN2,34.8958,32.9048,-1.991
HfIr2Au,61.8076,56.2388,-5.5689
Y3HfMn,57.935,46.3783,-11.5566
SeN2,16.8529,17.3526,0.4996
Gd2NiSn,27.2199,26.0167,-1.2032
SmDy2Er5Sc,21.2945,23.7229,2.4284
CoAg2W,60.2726,47.7264,-12.5462
YCr2,18.6208,13.7463,-4.8746
Zn2Sb2Pd,21.9045,18.5799,-3.3246
TlIrW2,43.4919,48.4655,4.9735
ErPuCuPd,31.1532,34.371,3.2178
YPPb3,31.4758,30.1799,-1.2959
NaTa2Mn,44.7978,44.5633,-0.2345
Cs2Tm3NpO8,12.651,15.759,3.108
TaMnAg2,44.4081,39.4097,-4.9985
Nb2V3Tc,126.8437,102.0185,-24.8252
Dy6HgOs2,21.3183,24.6074,3.289
CdSbIr,36.0018,34.8875,-1.1143
Ta2MnAg,51.3643,47.936,-3.4283
Na2PrYTe4,27.4061,25.6901,-1.716
KTlSb4,40.2504,33.2969,-6.9535
TlIrW3,45.3772,48.0833,2.7061
Hf(ThSc3)2,34.1202,32.828,-1.2922
YbGeO4,0.4727,3.3623,2.8896
CoAgAu,29.8891,29.1708,-0.7183
TlIrW2,43.3936,48.4655,5.0718
PuTh2Sb,61.8551,62.0484,0.1933
Pt4Rh3,72.5136,49.2056,-23.3081
Dy(Er3Th)2,32.4667,35.4642,2.9975
Ac3Sn7Pt2,42.4354,38.5732,-3.8622
AcSnPt,51.6628,45.2194,-6.4434
Re2TcPb,57.3138,56.6284,-0.6853
TiTeI2N,20.1061,19.0199,-1.0863
Re2TcPb,57.0174,56.6284,-0.3889
ZrReAs2,39.3982,36.8649,-2.5333
ZrFeRe2,55.6469,50.4201,-5.2267
Ac2Zn4CdCu3,19.6886,20.9889,1.3003
Y2ZrC,57.0542,46.0775,-10.9767
BaMoIN2,10.5344,9.4732,-1.0612
SnTeI2N,30.151,26.9422,-3.2088
K(CoBi)2,22.8358,25.1829,2.3471
KZn2Br,9.3717,9.5367,0.1649
Ac4PtAu,60.2989,59.6687,-0.6302
LiSm(GaAu)2,22.1726,23.6857,1.5131
Ac2Sb4Pd3Pt,44.9196,38.194,-6.7255
AcTbPdPt,48.6022,43.5774,-5.0248
BaAl2Re,23.9116,21.483,-2.4286
LaPr3NdTh,16.1559,16.2475,0.0916
Sb2IrPd,38.3043,34.876,-3.4283
CrTc2Au,53.3655,48.9732,-4.3923
Al2SbIr,23.4677,23.0767,-0.3909
PtPbSe3,58.5618,46.0389,-12.523
Ba4Te3Br,15.4986,16.4831,0.9845
NiGe2Ir,15.9646,17.6348,1.6702
Ca3Y2N4,8.5008,6.8302,-1.6706
CaPrRh,17.0906,13.6116,-3.479
BaAl2Re,23.4446,21.483,-1.9616
CdSbOs2,37.7423,37.7526,0.0103
PmSmTh,38.6471,42.603,3.9559
BeSi2SnO,40.3647,30.6201,-9.7446
Sr12LiHg6,8.7006,9.2659,0.5652
SrIO3,15.5045,14.1497,-1.3549
Fe2OsPb,35.9341,32.1628,-3.7712
Fe2OsPb,35.8827,32.1628,-3.7199
Ac6Pt2AuBr3,53.4877,50.2348,-3.2528
Fe2OsPb,35.8781,32.1628,-3.7153
Ta2HgO6,7.6258,7.8847,0.259
Re2SiRh,28.9875,28.2916,-0.6959
SiRu3W,45.5787,32.834,-12.7447
ThPt4Au,77.7068,59.1343,-18.5725
Zr2TaW,68.2281,60.9922,-7.2359
Ac3PtAuCl,49.6655,47.4895,-2.176
Y2HoThN4,32.5573,31.2127,-1.3446
Zr2TaW,68.1182,60.9922,-7.126
Cs2VS2,52.5767,41.6908,-10.8859
Ac2Ga3IrPd4,29.3758,29.8852,0.5094
Nb2PbI,90.2815,77.9337,-12.3477
BaNbAg,53.6061,44.5954,-9.0108
Tl2TeRu,37.1698,38.3673,1.1975
Y4HoEr3,15.9591,18.655,2.6959
NaCdGa2,15.1448,14.5304,-0.6144
CdGaCu2,11.9449,11.6262,-0.3188
Ce2PrLu,19.7665,22.9577,3.1911
Pr2Y2HoEr,8.4985,10.6709,2.1723
Au2SBr2,32.2079,30.5786,-1.6293
LaCoAg,30.144,24.0871,-6.0569
GaPbSe,36.1903,34.136,-2.0543
PrSm2PaSb5,37.268,32.5929,-4.6751
Dy5Ru4Au,24.4086,27.4764,3.0678
SiMoI2N,17.4807,15.426,-2.0547
NaCdGa2,15.1486,14.5304,-0.6182
Ca2MnIrSe,63.3689,50.1188,-13.2501
Ta(TiSe)2,20.6074,19.3864,-1.221
NaSiSe,24.9045,20.5837,-4.3209
Ac4PtAuBr2,51.7846,50.0807,-1.7039
NaEu2Se,31.5185,28.8077,-2.7108
NaEuSe2,35.9407,30.5411,-5.3996
CrCuSbAu,28.3112,25.563,-2.7481
CdCuIr,23.9732,26.6081,2.6348
CdCuIr2,28.684,31.8907,3.2067
NaAgTe3,36.5644,32.4099,-4.1545
AgOs2Pb,43.0038,45.613,2.6091
NaCeAg2,28.0481,24.556,-3.4921
Li2ZrRh,36.8118,28.826,-7.9858
AgOsPb2,45.1638,46.3635,1.1997
AgOsPb2,45.2014,46.3635,1.1621
Mg3CI,18.3598,14.9631,-3.3967
AcPt2Au5,59.6733,53.8792,-5.7941
TaTi3Se,20.9876,20.7713,-0.2163
NaTeBr3,20.197,18.596,-1.6009
LiPuSb2,40.1376,36.6015,-3.5361
ZrOsI2,47.4125,43.2406,-4.1719
Cd3Re,54.2332,46.5559,-7.6773
Zr2OsI,65.6709,56.8597,-8.8112
Pu2MnNi3,60.529,57.7421,-2.7869
La2ErPa,50.3171,44.3444,-5.9727
Pa2HgIr,44.1942,48.6022,4.408
Na2BeTlAs2,19.1655,17.2159,-1.9496
Co2MoRh,19.3151,19.1681,-0.147
NaHfSc,53.0545,31.3668,-21.6877
NiOsC,11.6156,15.2776,3.662
LuPaTc2,71.3475,67.7172,-3.6303
NaCuMo,17.1152,12.169,-4.9462
NaHfSc2,45.0665,35.6094,-9.4571
Rb2(Pb2Au)3,41.7999,42.6617,0.8618
CrOs2,20.1187,27.1435,7.0247
Pd9(Pb2Au)2,30.835,32.2768,1.4418
Li2CaAc,17.8594,19.2441,1.3847
Y6Co2Sn,27.7713,23.0214,-4.7499
Li2CaTm,9.4452,10.8551,1.4099
Li2CaAc,17.9527,19.2441,1.2914
CaAcTm2,32.8676,34.9002,2.0326
CuSnRu3,34.5715,32.5074,-2.0642
CrCoOs,19.7929,23.4928,3.6999
Pt2AuCl,58.2214,43.7981,-14.4233
CePBr,6.2229,10.792,4.5691
CoAgOs2,30.6409,33.3825,2.7416
LiCa3Sb,13.3847,11.3065,-2.0782
NaCu5Se4,21.1717,17.6786,-3.4931
NaFe2W,26.3914,20.3585,-6.0329
TaCd3,24.0772,25.5805,1.5033
CoOsRh2,36.5975,32.6895,-3.908
Ac2La3YSe6,47.0321,38.2415,-8.7907
Sc3Al3Si2Ir,28.8363,23.7895,-5.0468
Na3TaW,32.7518,29.9423,-2.8095
SrBeIn2,18.082,15.5516,-2.5304
TbPr2Sb3Pt4,50.0254,35.7996,-14.2258
YCu2,21.2422,20.4423,-0.7999
GaTe2PI,31.2603,27.6746,-3.5857
Sn2TeRu,25.5058,26.3925,0.8866
CoTcMo2,23.9455,33.043,9.0975
NaAsOsSe2,48.1454,42.8684,-5.277
Ba(NbI)2,65.9627,55.8643,-10.0984
Pa2CoRu,39.0366,43.9551,4.9185
NaMoAs,16.8769,17.9869,1.11
Ac2NdSb3,46.8674,44.0388,-2.8286
Ba2YRh,36.0537,30.003,-6.0507
Hf4ZrPb,120.9883,90.0302,-30.9581
Lu2ThCd,38.0661,40.3166,2.2504
Lu2ThCd,38.2196,40.3166,2.097
CrTc2Au,60.9284,48.9732,-11.9553
CoSiRh2,29.5183,21.7909,-7.7274
CoSi2Rh,20.8044,15.6595,-5.1449
Sc(SnPb)2,32.2519,31.0078,-1.2441
LaReSi,36.9268,29.8922,-7.0347
Ag2AuF6,14.0017,12.4057,-1.596
CoReAg,27.1397,28.0596,0.9199
Hf6ZnFe2,88.5977,62.2897,-26.308
CrTc2Pb,62.3309,56.2586,-6.0722
Y2Cu,22.786,20.7282,-2.0578
Y2Mg3In2,12.1901,12.0909,-0.0992
CuSiRh,24.9884,20.3453,-4.6431
AlGeTe3,36.2028,31.7523,-4.4505
SmAg2F6,13.5657,11.4895,-2.0762
Y(ReSi)3,26.4311,24.4276,-2.0035
TlCuMo3,32.8824,28.4307,-4.4517
Y2CoGe2,20.5489,17.2901,-3.2589
LiPbW2,32.9694,36.934,3.9647
NiGeIr,25.5011,24.1668,-1.3343
NaNdInPt,39.144,32.6779,-6.4662
Li2ZrTl,37.6324,33.6312,-4.0011
La2NbPb2,64.2403,53.9376,-10.3027
Li2ZrTl,37.5639,33.6312,-3.9326
NaSrNb,60.9382,50.7042,-10.2339
Ag2AsW,61.6002,47.8663,-13.7339
K2Pu2Br7,21.0588,21.7083,0.6494
Th2AgSb,45.7348,45.3697,-0.3651
Y3(GaRh)4,24.504,19.9375,-4.5665
TbTlAgTe2,34.3058,33.8604,-0.4455
Rb2(TmTe2)3,30.4111,29.923,-0.4881
ZrCd3,36.0928,31.9632,-4.1296
LaNb2Pb,97.283,81.0422,-16.2408
Cs2NaWCl6,8.1322,9.3842,1.252
Tl4SbOs,49.4011,48.63,-0.771
NaZrCd,44.0573,38.318,-5.7393
LaPb3W,50.0301,47.9452,-2.0848
Li2ZrTl,37.5364,33.6312,-3.9052
Nd2Er4Tl,26.7375,30.8376,4.1001
Na3ZrCd,39.1486,31.6096,-7.539
La2NbPb,74.506,60.2387,-14.2672
LaPb2W,49.3116,46.8881,-2.4235
CdPb2Au,43.0175,44.7399,1.7225
TlCdAu,39.1019,40.2852,1.1833
ThAlCu,21.0491,23.9124,2.8634
GaHg2Pb,13.4092,15.3426,1.9334
MnPI2N,43.3669,35.6682,-7.6986
NaZrCd3,36.8025,31.6325,-5.17
AgAs2W,56.4765,44.9974,-11.4791
Ag2AsW,61.4061,47.8663,-13.5398
Ag2AsW,61.4076,47.8663,-13.5413
InP2Se,19.0752,17.8341,-1.2411
Pr(PaSe2)6,50.1679,44.9023,-5.2656
NaCu2AuCl6,7.9986,7.8221,-0.1766
CrTcRh4,49.9843,38.839,-11.1452
Pr5C2Cl9,1.1411,0.2328,-0.9083
Ca3(Mg2Zn)2,5.7954,5.7396,-0.0558
Ca2MgRh,11.9772,11.0383,-0.9389
InP2Se,19.2561,17.8341,-1.422
CoP4Pb,21.6401,20.6074,-1.0327
Li(CaPb)2,19.6608,21.8482,2.1874
Sn2As2Pb,18.978,20.6296,1.6516
Ba2HfPb2,45.3314,38.8576,-6.4738
CrTcRh,50.323,42.3897,-7.9333
CrTcRh2,50.0959,40.1021,-9.9938
Li2ZrW,35.0412,31.5419,-3.4993
ThAl(CdCu)2,21.8053,21.6252,-0.1801
SrYO3,19.848,18.5912,-1.2567
CaMg2,0.3977,3.0882,2.6905
Ce4Ho2Rh9,39.1761,30.9168,-8.2593
RbNa(GeCl3)2,5.9269,4.4851,-1.4419
NaYb3,30.9624,31.311,0.3486
Na2CrC,40.6792,34.9168,-5.7624
LaPr2Nd2Er,15.4681,15.0833,-0.3848
LaTaSi,34.6518,28.7992,-5.8526
NiAg2Au,29.2046,27.6847,-1.5199
RbTe3Ir2,30.8733,32.5783,1.705
ScFeSiIr2,38.9365,35.9625,-2.9739
Li3RuSe,13.7722,12.3464,-1.4258
SmEuTlAu,37.3031,39.5968,2.2937
ReTcRh3,57.5666,46.0393,-11.5273
AcIn3NiIr,24.1215,27.2773,3.1558
Na2CdIn7,20.9851,20.4064,-0.5787
La2TmSb,44.1915,33.8401,-10.3514
KRePb,36.4421,37.6565,1.2144
Sb5(Te4Pb)3,33.8075,29.9447,-3.8628
SiNiP2,10.0716,13.8382,3.7666
Pm2AlVO6,7.7988,9.2753,1.4765
CrBiI3,26.9009,26.6019,-0.299
Na2Cd2In,19.9293,18.6794,-1.2498
Ac2In(SnPd2)3,28.9073,27.6685,-1.2388
ZrNiP4,23.074,19.3423,-3.7317
RuRh2Cl,41.5366,32.1602,-9.3765
Rb2CaP,16.8337,13.595,-3.2387
Ga2RuPb6,39.314,40.274,0.96
CsAc2Sc,39.9063,42.2434,2.3371
LiRuSe2,28.241,25.4737,-2.7673
BeCrNi,12.5788,15.4559,2.8771
LuZrTl2,58.2788,54.6006,-3.6782
Be2CrNi,14.2851,15.3236,1.0385
CaHfIr2,65.8345,52.9292,-12.9053
Ba2YAu2,37.072,34.0786,-2.9935
ThAl2Cu3,12.4515,13.9943,1.5428
LuThAlCu,28.2445,30.5968,2.3523
CaHf3Ir,102.0088,73.2398,-28.769
CaHf3Ir,103.8693,73.2398,-30.6295
Ca2SmWO6,24.0948,21.8349,-2.2599
PIrIN2,29.7218,25.5616,-4.1602
Ce2NCl,16.6998,20.0662,3.3664
Si2RuRh,34.2587,26.0752,-8.1835
NaIn2CuPb,24.8265,24.6273,-0.1992
TbCu(PO4)2,7.8153,6.5036,-1.3117
TaSbSe3,45.293,37.3996,-7.8934
Ac4SmPt5,71.9298,58.3756,-13.5541
CaTa(PbO3)2,21.3504,21.276,-0.0744
AcCd2CuPt2,47.9305,38.8442,-9.0863
SiRhF2,28.0222,17.8257,-10.1965
SrSi2IrW,36.9701,30.8137,-6.1564
CaSiIr2,34.1072,30.5881,-3.5191
SiIrPt2S,59.5448,43.1554,-16.3894
GaRuPb2,29.0404,32.0983,3.0579
CuNi2Os,17.2706,18.6297,1.3591
ThAl3Cu,2.1574,7.2051,5.0477
NaVGe2Os,44.774,38.4062,-6.3677
CuNiOs,21.4953,22.9981,1.5028
Ba2Ce2ErSc2,13.0695,16.0304,2.9609
Rb2TlIn,18.7302,18.7572,0.027
CoBi2WO6,10.5097,13.9075,3.3978
InCo(AuO3)2,10.5835,11.4274,0.8439
Ce4Pr2Rh9,34.819,26.5887,-8.2303
Th2AlCu3,21.75,23.4203,1.6704
KSiMo,14.8775,13.3337,-1.5438
ReSnO2,62.3282,53.0573,-9.2709
CeZrPd4,12.1215,13.3939,1.2725
Th(Al3Cu2)2,11.3703,11.3046,-0.0657
MoAs2Pt,31.1868,25.3929,-5.7939
TbPr2ErSe5,30.6275,25.7915,-4.836
Be2TcAs,25.2483,25.9245,0.6762
Ba2TaCd,14.6573,16.5017,1.8444
ThAl7Cu2,11.0514,11.7204,0.669
MoAsPt2,51.037,38.3375,-12.6995
PmNbCr2O6,20.0703,17.5033,-2.567
Hf2TlMo2,65.3993,52.9194,-12.4799
Os3Pb,45.3706,48.9945,3.6239
MoAsPt3,60.0046,42.3027,-17.7019
Ba2TaCd,14.5663,16.5017,1.9354
SbIrPt2,66.813,50.7931,-16.0199
NaTe3C,44.2328,36.6846,-7.5483
Mo2AsPt,32.6018,27.5403,-5.0614
TiSbW2,32.055,33.8223,1.7672
CdCoAs2,15.8309,14.82,-1.0109
NaSb3C,46.0673,34.313,-11.7543
InGa2CuO6,14.4275,12.768,-1.6595
CdCoAs2,15.8109,14.82,-0.9909
NaTeWI2,31.5261,29.4383,-2.0878
K(SnPb5)2,44.5369,45.2711,0.7342
BaCdAu2,28.1128,29.7604,1.6475
KGeAs3,10.6491,10.8838,0.2347
SbIrPt,59.3807,47.9243,-11.4563
Ac3(Pm3Tm)2,36.7428,40.4111,3.6683
As3PSe,35.9169,31.0502,-4.8667
AsPSe2,38.7241,34.426,-4.2981
AsPSe2,42.543,34.426,-8.117
BeSbBr,29.4983,27.766,-1.7323
BaCdIr2,26.9145,29.9685,3.0539
Gd2SnPd,26.4685,26.492,0.0235
Tb2CeTm4Sc,25.7735,27.9987,2.2252
BeSbBr2,25.0208,23.4537,-1.5671
Ta3TlTe,43.2202,43.8546,0.6344
SbIr2Au,45.096,45.6074,0.5114
Li2CdInIr,17.8294,17.7637,-0.0657
LuHfSc2,47.0508,39.4213,-7.6295
BaCdIr2,27.1658,29.9685,2.8027
In2NiIrC,30.6299,28.1078,-2.522
NiSe,22.0989,20.6263,-1.4727
InMoPb,29.9512,31.8416,1.8904
InCuMo2,26.2125,22.541,-3.6715
Sr3Zr5S12,39.7198,27.3371,-12.3826
InCuPb,16.4285,20.1231,3.6946
TeAs2Pt,38.3172,30.7368,-7.5804
BaCdOs,21.9038,23.3371,1.4333
InCu3Mo,21.7028,17.0609,-4.6419
InCuPb,16.5091,20.1231,3.614
Th12Ir5Pb3,35.893,40.5853,4.6923
TeAsPt,47.6182,38.1496,-9.4686
ScTe(PbO3)2,34.0669,32.7276,-1.3393
LiSiTc2,55.5046,48.7688,-6.7359
TeAsPt3,65.1264,46.4597,-18.6668
YGa4Rh,10.8831,10.1774,-0.7057
ZrPd4Pt,42.5814,36.4036,-6.1778
CuSeN2Cl,23.5121,20.2996,-3.2125
CaMgC,23.0015,17.7287,-5.2728
Ca2PrSm,8.4595,9.7878,1.3283
NaLa2Ti,39.3949,29.0516,-10.3434
BaThCuS3,33.4928,28.1769,-5.3158
La4OsSeBr2,38.7297,29.4465,-9.2832
In2Ge2Sb,17.3098,17.2824,-0.0274
B2PC,20.6008,16.3471,-4.2537
Er4Ir2PdRu,31.1452,32.7916,1.6464
TlNCl2,24.1825,23.7103,-0.4723
RuPbSe,33.4564,32.8764,-0.58
SrY2Cu,27.1041,22.4879,-4.6162
Rb2RuSe,40.7991,33.9093,-6.8898
BaSbRh,30.8772,24.8248,-6.0524
Ta2CrSe,58.1711,46.6579,-11.5132
BaCdRe2,67.2269,55.4847,-11.7422
CsBaV2,71.9139,56.9906,-14.9233
PmEr4Zr,40.7717,38.9545,-1.8172
Sr(YCu)2,31.6014,26.2315,-5.3699
Y4AlIn,24.4007,21.5165,-2.8842
Tl4SbMo,44.7258,43.9176,-0.8082
Na2LaW,31.8102,27.2537,-4.5565
Ta2CrSe,58.056,46.6579,-11.3981
LiIn2AgI4,20.4974,19.8442,-0.6532
BiSNCl2,34.2345,29.8241,-4.4105
Si2NiC,25.2019,13.0861,-12.1159
Tm2SI2,31.2816,29.2182,-2.0633
Pr2Sm5Ho12,24.086,25.6575,1.5716
Ba2NiPdO5,4.1935,3.8076,-0.3859
Li4Sc2F9,0.0,-0.0,-0.0
CdCuBr2,15.3416,14.268,-1.0736
Cd2CuBr2,16.3323,15.6982,-0.6341
ZrCN2Cl,43.4744,35.8223,-7.6521
Mn2Te2S,67.6807,56.611,-11.0697
AsRuPb2,35.3761,35.0265,-0.3496
Sb2Te2S,42.4066,34.1822,-8.2244
LiAg2Au,27.495,25.5163,-1.9787
LiSmScRh,19.7965,18.3337,-1.4629
AsRuPb2,35.8755,35.0265,-0.849
Be5Co3,7.0905,4.1355,-2.955
Sr3TaTi,25.0634,20.0643,-4.9991
Nd4PuIn15,22.9897,24.2189,1.2292
As2RuBr,17.424,15.9372,-1.4867
BaCdW2,25.5661,28.1286,2.5625
TiV2P,57.4922,46.4004,-11.0918
Ac6Si2CI3,44.7487,43.5785,-1.1702
TbZrAu4,51.6474,49.8748,-1.7726
RbBa2WO5,5.0392,6.7949,1.7557
AsRu2Pb,26.4236,27.3574,0.9338
NdTmSb,32.7723,31.9657,-0.8066
Sr2AcHfO6,14.8798,15.0255,0.1457
PrHoSi,12.4694,12.7709,0.3015
LiAcGaPt2,49.5588,38.9893,-10.5695
BaLi2NCl,8.668,8.579,-0.089
AcTh2(CuGe)2,32.2785,35.7758,3.4973
AsRuBr,19.3588,18.9126,-0.4462
Th2CuSi3,23.9921,23.6042,-0.3879
BaSb2C,38.8635,29.3792,-9.4843
TmZrRh4,53.7418,41.4401,-12.3017
Sb2MoPt,48.8096,38.2747,-10.535
AsRu2Pb,26.5567,27.3574,0.8008
In(SnSb)2,30.4047,27.0502,-3.3545
BaLiAg2,17.7214,14.7656,-2.9558
SbMo2Pt,41.3367,33.681,-7.6557
LaNiAg2,30.0909,23.8165,-6.2744
Sm3NCl7,11.9164,13.8542,1.9378
Sb2RhSe,41.9422,32.8292,-9.113
Tb4ErZr,33.8673,34.3232,0.4559
SmZrAu4,51.4201,49.5745,-1.8456
LiTiInAg,15.2915,14.4644,-0.8271
YPS2,51.1218,42.3254,-8.7964
RbLuTl2,34.125,35.4289,1.3039
BaAcPtO6,9.9316,9.8127,-0.1189
SrLa(GaPt)2,42.5641,30.6745,-11.8896
Ti2InSb2,23.8707,21.1085,-2.7622
KNiAg,17.3799,15.9649,-1.415
BaLi2CdIn,11.0084,10.3921,-0.6163
MnZnPt6,80.1715,55.7534,-24.4182
Y(CoGe)2,17.9463,16.9046,-1.0417
LiCd2InRh,22.5006,19.3447,-3.1559
Ca2CoTc2,38.706,34.268,-4.438
Hf2Ni2Pb,62.6874,49.5616,-13.1258
CdIn2Ir,25.8323,27.5305,1.6982
SrMo2Ru,18.7964,18.6978,-0.0986
Sm2Al3GeAu4,29.0823,29.3328,0.2505
LiCdInAu,22.5791,22.6586,0.0796
SrMoRu2,17.3305,19.3399,2.0094
TbTmInAu,30.4259,32.9388,2.5129
Na4Np2Cl9,11.9206,12.6824,0.7618
Na4Tb2Cl9,6.7172,7.6437,0.9266
SrMoRu2,17.554,19.3399,1.7859
AlSiF,14.9698,13.5687,-1.4011
Sm4TlAu3,35.9212,37.7502,1.8291
Rb2Se2S,30.7655,23.5623,-7.2033
Re2Se2S,46.7079,41.2614,-5.4465
Tl2Se2S,47.492,40.6725,-6.8196
CrTcMo2,24.1761,27.2656,3.0895
TlNiPt4,69.411,50.3096,-19.1014
CdTe2,31.9051,31.4806,-0.4245
AsPtW2,45.1577,40.4249,-4.7329
Cs(BiC)2,52.1026,44.8256,-7.2771
ScNCl2,27.6831,26.4626,-1.2205
AsPt2W,57.8382,43.8545,-13.9837
Zr4PaAg,82.0171,67.9666,-14.0504
LiAg2Os,26.7322,25.7126,-1.0196
K9(RbNa2)2,14.051,11.5957,-2.4553
FeAgTe2,29.3062,28.0877,-1.2185
CeY3,10.435,13.2868,2.8518
CdIn2Os,25.5609,27.5787,2.0179
NaAlSbTe3,29.3093,26.3251,-2.9841
SbRhPb,48.8275,41.5765,-7.2509
LiReAg2,26.1647,24.6623,-1.5024
Zn5(Sn4Pb)3,13.3741,14.4926,1.1185
SmEuPb,34.9855,37.3626,2.377
YMgPS2,41.3199,34.0255,-7.2943
TlReMo2,34.1642,35.0397,0.8754
Ta2Cu2Ru,14.073,18.108,4.035
ZnGe2Pt,28.8971,23.1498,-5.7473
SbRhPb,49.3992,41.5765,-7.8227
FeAg2Te,26.7752,23.9636,-2.8116
Fe2AgTe,19.2855,18.349,-0.9366
Sc3NCl,16.9645,16.189,-0.7754
TaCrRu,54.8885,19.4787,-35.4097
HfTa2Ru,58.2626,52.8198,-5.4429
LiAg2Pt,38.0009,27.947,-10.0539
HfTaRu2,52.6358,46.2737,-6.3621
Zr4TcAg,86.0536,70.2388,-15.8148
CoSbAs2,22.2003,18.8369,-3.3633
TiNb2PtN,74.8523,61.7382,-13.1141
Rb2Na9Cd4,20.1269,17.0747,-3.0522
Na2FeCu,30.6285,25.0333,-5.5952
Sm(GaAu3)2,35.8956,37.042,1.1465
NaYTl2,31.9355,33.774,1.8386
HfTePd,47.1272,35.1144,-12.0128
In(ReOs)2,27.3129,33.7581,6.4452
SbRhSe2,47.8669,33.3736,-14.4934
LiBiSb2,36.1457,29.5871,-6.5586
HfTePd,46.9768,35.1144,-11.8624
TaBi3Sb,49.7506,48.7458,-1.0049
ScNbNi2Rh,42.7093,34.9877,-7.7216
NaHoTh,39.8264,41.038,1.2116
Hf2TePd2,65.2692,50.629,-14.6403
LiAg2W,59.1692,45.5329,-13.6363
TlCu2F6,7.7598,7.66,-0.0998