Formula,E_hull_DFT (eV/atom),E_hull_ML (eV/atom),Delta (ML - DFT)
Tl2HgPdF6,12.3102,13.9143,1.6041
HfV2Cu,102.3436,73.1157,-29.2279
RhPbN2,26.5932,25.6399,-0.9533
BaHfCu2,40.9332,30.2773,-10.6559
TaGaAs3,32.7263,27.2779,-5.4484
HfCuMo,46.1717,32.1952,-13.9765
YInPd2,20.2956,20.9049,0.6092
AcTa2Ru,42.9403,43.4878,0.5475
La(HfCu)2,64.1082,47.2661,-16.8421
Ta2GaAs2,46.2033,37.3793,-8.824
Cs4Sm3TmO8,11.1999,11.9447,0.7448
In2NiPb2,26.9117,28.2429,1.3311
BaHf2Cu,74.9663,53.5294,-21.437
Rb3Pd2I7,16.0388,16.0937,0.0549
Rb3Sn7Pd2,17.3864,15.8076,-1.5787
Ac2HoZrS6,57.7689,47.6939,-10.075
K(CdPb3)2,40.6118,40.9832,0.3714
Ba2CoBS,14.2807,10.1816,-4.0991
Y2SnHg2,21.1114,17.7214,-3.39
HfNpCu,48.9595,40.927,-8.0325
Y6HoTmSc2,11.0129,11.7444,0.7315
AgPt3Au5,59.7041,51.0666,-8.6375
Ac2GaNi2,14.9102,19.0075,4.0974
UVSb,55.8415,50.2223,-5.6192
TbDy(Y3Sc)2,8.905,11.2505,2.3455
YHo6TmSc2,19.1745,19.9776,0.8031
Er3TmAu4,37.6128,39.5601,1.9473
Nd6SmYSc2,15.5657,17.0507,1.485
Ba2GaNi2,10.9695,8.0026,-2.9669
NdHfCu2,45.435,36.8137,-8.6214
Sr2LaAu2,34.2916,32.7228,-1.5689
PrCo(CO3)2,15.4957,13.8652,-1.6305
AcSm6Th,35.1208,36.515,1.3942
Cd5Ag3Sn,23.496,21.6645,-1.8315
Sr2Y2Hg,22.454,19.2218,-3.2322
NbInCoHg2,33.907,28.6456,-5.2613
Pr2GaSb,9.2732,8.4136,-0.8597
TiZnBr2,8.4193,10.9927,2.5734
Na2CuSI,26.3339,21.6963,-4.6376
Ce5Sc,21.7013,23.3416,1.6403
Y2InHg4,17.2527,14.897,-2.3558
ScNiS3,43.5925,35.248,-8.3444
U4SiGe,49.7355,51.2767,1.5412
CdNiMo2,25.7013,25.87,0.1687
Hf3S,112.108,78.3521,-33.7559
HfCu2Sb,44.7848,35.5892,-9.1956
HfZrNbCu,97.6307,77.1697,-20.461
Al2(V2Ga)3,73.218,57.3264,-15.8916
Hf4CuSb,95.9962,67.0679,-28.9283
HfZrCuOs,72.347,60.397,-11.95
InAg3Sn5,24.2692,22.4416,-1.8276
Hf2Cu2Sb,62.8403,46.978,-15.8623
HfCr2CuNi,45.4218,34.078,-11.3438
RbTl2MoF6,10.9394,12.4807,1.5413
Hf2TlCu,80.3448,62.6685,-17.6763
HfFeCuNi,61.2692,45.1895,-16.0798
CrSb2TePt,46.6842,37.5781,-9.1061
Cu(TcAs)2,35.7695,31.6637,-4.1058
PuCd3Ag5,31.9262,28.7556,-3.1706
NiAsBr2,19.434,16.4555,-2.9785
Cs3Rb7Cd2,10.3858,9.9614,-0.4243
HfCuIr,39.569,35.2558,-4.3133
LaHfCuAs3,31.4843,24.5302,-6.9541
Sn6Sb,24.6086,24.4529,-0.1557
Y3HgO,31.6939,25.2455,-6.4484
Li4Hf3CuSe8,50.448,36.8991,-13.5489
Ag3Pb5I,42.2576,40.2878,-1.9699
Ba2CoAsS,17.8463,13.3438,-4.5024
YGa2Hg,16.5981,15.4076,-1.1905
Pr2HBr5,1.7032,6.6782,4.975
AcAgGe2Pd5,22.1542,22.4801,0.3258
HfCuGeAu2,51.8214,43.4725,-8.349
Rb3Tl7Pb2,38.8584,39.2995,0.4411
Y3TaHg,45.2705,36.2123,-9.0582
Y5(SnHg)2,28.4658,22.101,-6.3648
RbRePt2,56.5203,44.2561,-12.2642
HfCuSbRu,53.2258,42.473,-10.7528
HfCuSbTe2,56.363,44.8355,-11.5276
BeTl2W,38.9999,39.0635,0.0637
CaGdMgSn,14.0173,16.1497,2.1325
Rb2SClF6,6.3888,6.139,-0.2498
BePdSe,20.9643,19.8353,-1.129
ScTcAs2,66.9663,56.8833,-10.0829
PrSmGdY,16.7178,19.1004,2.3826
Cr4CdCoS8,36.3333,27.0856,-9.2477
LaGd6,33.6823,32.215,-1.4673
ScCu2Tc,65.5735,55.5859,-9.9876
PuCu(SbS3)2,50.457,41.1624,-9.2946
Sc3SI,27.1791,24.6615,-2.5176
ZrTlMo,55.628,52.4192,-3.2088
Hf2TcIr,105.1174,81.7525,-23.3649
CuTc2As,50.9327,44.1652,-6.7675
CaPmSn4,18.5937,16.5478,-2.0459
ErV2CoO8,23.5958,19.5026,-4.0932
TaFeRe2,40.1722,39.3735,-0.7987
LiYHg3,11.7351,9.7749,-1.9602
SmY2TmSc,16.1744,17.3932,1.2188
YMoSN2,41.5862,34.3607,-7.2255
InAs2Pb,23.3496,24.3678,1.0183
Y2HgMo,32.6846,25.9945,-6.6902
Rb(MnIn)2,44.2995,37.1818,-7.1177
SrTb6,25.9887,26.8493,0.8606
Zr3Mo,68.7422,60.0988,-8.6434
YTm2Hg,27.7994,27.2887,-0.5107
In2AsPb2,27.8139,28.9809,1.167
TcSb3S,57.3159,46.3222,-10.9937
Sr6Lu,17.6435,18.2076,0.5641
YReHg3,18.6481,17.5643,-1.0838
Be3Cu2,7.6093,6.7117,-0.8976
Tb(PuSc3)2,22.9127,24.4698,1.5571
Rb2ZnPdF6,2.2082,2.9395,0.7314
La6Tl2CoN,63.0804,51.4673,-11.6132
Pd12Se,20.1986,20.6421,0.4435
Y2Hg2Te,24.0425,20.866,-3.1765
ReTc2Ge,72.3472,60.762,-11.5852
SrLaBr5,12.571,11.2802,-1.2908
FeReW,41.0056,37.4524,-3.5532
Nd2ScSn4Pd3,25.0383,21.6275,-3.4108
NaPmNd,24.8068,25.4365,0.6297
TePb6,51.5971,51.8111,0.2141
Y3C2,39.3206,30.922,-8.3986
KP2Ru,8.9627,9.8282,0.8655
La3BiRu,38.4904,32.9669,-5.5236
TlZn2AgF6,9.6079,9.8216,0.2136
Re2TcGe,50.46,45.6911,-4.769
ErCoS,24.0991,22.7989,-1.3002
TlZn2InF6,8.2281,9.1846,0.9565
AlCdW2,19.1996,25.0507,5.8511
YHgSe3,38.8989,30.9553,-7.9437
ZrTl4Mo,53.7174,51.921,-1.7964
ZnAg2AuF6,16.0084,15.2942,-0.7142
RbTlZn2F6,6.1113,7.4489,1.3376
Y2MnHg,45.4063,37.2797,-8.1267
RbGa3Tc,24.0929,21.3369,-2.756
Sm2Er(Zn4Ni)3,10.6396,11.8022,1.1626
DyScNb4,99.9723,81.0148,-18.9575
LiInC,24.3043,17.7811,-6.5233
Ga2TcHgGe,23.7977,21.3371,-2.4606
CuSb2Pt,46.2375,37.1721,-9.0653
YHg3Pd,5.3277,5.107,-0.2207
Mn2CoSiHg,46.2533,36.1559,-10.0974
Y4ScHg5,20.1966,17.2328,-2.9638
Tb5NiRh4,32.8034,29.0527,-3.7507
GaTcBi,46.6782,44.5821,-2.0961
Ga2TcRh2,34.7734,28.7914,-5.9819
RbAlTl2F6,14.3893,15.0691,0.6799
YHgW3,36.6984,35.479,-1.2195
RbGa3Tc,11.6979,21.3369,9.6391
YIn3Hg,22.553,20.9448,-1.6082
U6V,78.5376,75.7493,-2.7884
GaTcSe,49.6645,41.6436,-8.0209
BeOs3Ru,31.0289,32.8167,1.7878
GaTc2As,50.9674,44.3013,-6.666
Sm2Mn(ZnNi4)3,19.4784,19.4888,0.0104
Ga2Tc,31.2625,29.2337,-2.0289
GaFeTc2,48.1667,40.8397,-7.3269
Cd2GaTc,32.1324,30.4085,-1.7239
Ga2TcHg,24.0507,22.0001,-2.0506
Ac2Ni2Ge,33.3039,33.1668,-0.1371
UGaTc4,74.8726,64.6632,-10.2094
YHg2F,10.3504,11.5998,1.2494
Sm4TlAu,28.1946,30.7654,2.5708
Pa2Ni2Ge,26.7949,28.393,1.5981
Co3BiI,20.4127,21.4564,1.0437
Hf(NiPt)2,60.1345,43.9674,-16.1671
NdDySnPd,24.8768,24.9705,0.0937
Y3HgC,36.4699,29.206,-7.2639
NiAg3,21.8708,18.8055,-3.0653
CaMnAg2F6,20.0974,17.1424,-2.955
TaGaSb2Te,53.143,43.5742,-9.5688
YHgBr2,17.7021,15.6487,-2.0534
Zr2AgGe,53.0673,47.5687,-5.4985
TlAuSe,45.185,44.3002,-0.8848
YV3Hg,88.6826,67.8419,-20.8407
TiMo3I,16.7579,18.7308,1.9728
SmPaGe2Rh5,38.9062,31.8223,-7.0839
Pr2YHg5,4.5492,4.045,-0.5042
TlSb2Rh,43.0389,37.8163,-5.2226
YVHg2,41.3637,32.8416,-8.522
Y(TiHg)2,13.8846,11.9236,-1.961
Ba2ZrP4,19.7504,16.904,-2.8463
Al2Tl2Zn,20.7457,22.137,1.3913
Si2IrPbN,29.1074,24.6892,-4.4182
NiW,26.0577,27.6834,1.6257
AlTlZn2,17.521,18.6503,1.1293
SrAc(PtO4)2,21.0864,17.626,-3.4603
NdEuSi,23.9478,24.1168,0.169
Sc3ZnS6,40.5454,33.969,-6.5765
PmMnBi,53.7344,50.1968,-3.5376
Sc8Te3CS3,34.4791,29.5712,-4.9078
ZrSc7,16.7609,16.2533,-0.5075
Al2TlZn,16.2945,17.9513,1.6568
Np3PS2,53.9066,52.6212,-1.2854
Pr3(YHg)2,12.1419,10.2368,-1.9051
AcGa2BiPt5,64.3286,50.5119,-13.8167
Pb(IO)2,48.4531,40.9047,-7.5484
Rb2ScO3,36.4514,32.7382,-3.7133
Sc3AuN,0.0,14.2002,14.2002
Ce3FeC4,39.3937,29.6671,-9.7266
La2Ni2Ge,22.3891,16.7033,-5.6858
GaHg2As,4.6645,5.5816,0.9171
Ac2Tb2Te2Se3,44.1656,41.2886,-2.877
SrGe2PbAu5,35.6047,36.4048,0.8002
Pm4ThIn15,22.6919,23.8435,1.1516
K(Tl2Bi)6,49.9644,50.2155,0.251
Ac4PtSBr2,52.7343,48.5364,-4.1979
SrPmGe2Pd5,15.6218,17.1677,1.5459
Y2HgIr,35.9125,32.3628,-3.5497
Sm(DySc)2,18.1388,20.4338,2.295
FePd2Pb,24.6711,25.1682,0.4971
LaY2Hg,38.1508,30.1084,-8.0423
CsTmCoO3,2.6936,6.2775,3.5839
CsTiSb3,34.6964,29.816,-4.8804
PmNdYHg,24.7533,24.3355,-0.4178
CsBeN,23.9876,20.1639,-3.8237
AcCd(SnPt2)2,59.7966,48.4536,-11.343
HfV3P,108.558,80.765,-27.7929
SrThGe2Pt5,60.0978,46.5098,-13.588
Zr2ScF,45.892,41.0568,-4.8353
LiBe2Ag,9.9322,7.8907,-2.0415
CsSn2PtO,50.323,40.6673,-9.6556
YPaTlHg,42.1698,41.6255,-0.5443
YAlHg2,18.932,14.8818,-4.0502
LaNbBi3,72.6576,63.6389,-9.0187
YEr2HgC,33.5538,29.3751,-4.1787
GdTm2Pa,39.6965,41.82,2.1234
Ac2(H2Pt)3,35.6698,29.7054,-5.9644
ReBP2S,39.0074,33.7738,-5.2336
Nd(InNi)2,14.9965,17.2025,2.2061
YErHgAu,31.1137,30.3616,-0.7521
CsBeN2,30.3425,26.0706,-4.2719
Li2YHg3,8.9204,7.7566,-1.1638
LaTbLuSc,29.3058,28.3383,-0.9675
MoIr2PbF,37.6566,35.0712,-2.5854
RhPb6Au,51.5401,50.6964,-0.8437
LaY2(InHg)2,27.148,23.422,-3.726
Rh3PbAu,50.9178,42.1447,-8.7731
Li3MoBr,13.5642,12.9822,-0.582
Nd2DyNi2,12.1866,15.2401,3.0536
SiSO,23.0892,18.7549,-4.3342
UNi4W,26.8434,25.5521,-1.2913
DyCu4Au,16.6254,18.4883,1.8629
La2CuNi4Ge3,21.504,15.6745,-5.8295
Tl2AgGeI5,25.4736,25.5037,0.0301
AcYHg6,13.8295,13.2623,-0.5672
TiSbP2Pt,33.0301,26.2817,-6.7484
Cs2HgPdF6,6.5395,7.21,0.6704
TiPPt,37.5485,30.4628,-7.0857
Ga2GeAuSe6,32.3254,26.8184,-5.507
ZrUNi,48.9231,49.2263,0.3032
NbCd2P,46.6416,40.0504,-6.5911
Rb2SrAcF6,11.5544,12.096,0.5416
BeInNi2,7.9676,10.8249,2.8574
CsSnO2,52.5491,42.4645,-10.0846
Pr(BiSe2)2,37.1032,33.1791,-3.9241
NaYHg4,12.2503,10.3439,-1.9064
UMnNi,92.1444,84.8161,-7.3283
EuTcN3,14.7842,13.2396,-1.5446
Hf2ReRh,85.1899,64.1556,-21.0343
NaYHg6,8.937,7.5813,-1.3556
La2YHg,38.2958,29.7893,-8.5065
SmEr4Tm,29.0513,31.0847,2.0334
UTl2Ni,44.6422,46.9581,2.3158
ZnCrTcMo,32.3434,29.1063,-3.2371
LaRe6,42.5504,43.4984,0.948
Na2YHg,22.8944,20.7722,-2.1222
LaBeBr2,18.1827,15.3525,-2.8302
Pm2Be4AlGe3,13.8474,12.9398,-0.9077
Sm2GdSb,30.7132,31.6555,0.9423
LaYZnHg,27.0407,22.2429,-4.7978
Cr3Mo,0.8553,4.242,3.3867
NaIn2Fe,20.7826,19.4221,-1.3605
Ba(In3Ni2)2,15.2342,15.0453,-0.1889
Rh2WSe,46.4961,38.4587,-8.0373
Nb(NiRh)2,50.1822,40.2806,-9.9016
TmPaNb4,110.8701,92.3695,-18.5007
YHg2Mo,20.0646,15.576,-4.4886
Ce2FeGe6Ru,12.7483,11.6229,-1.1254
Cs2DyGaBr6,10.1928,12.3358,2.143
LaY2(TlHg)2,36.0705,32.2159,-3.8546
Pu2FeTcGe6,22.4001,21.4089,-0.9912
ReNi3,26.4614,18.5445,-7.9169
YAlHg,25.2624,20.2843,-4.9781
TlCrSb,30.4282,27.5648,-2.8634
Pu(PaNi)2,34.4432,38.3408,3.8976
BaLa2Pr,24.7461,19.4428,-5.3034
Ba4LaCu,10.8062,8.7089,-2.0973
Ac2MnPbO5,42.6727,41.0191,-1.6536
MnGaNi2O5,35.5652,32.1628,-3.4024
RbOs2O,16.5684,18.7509,2.1825
NpPS,43.9056,45.9359,2.0302
MnAl3Sn3Ge2,29.965,25.6018,-4.3633
Ta2W2F,39.1766,38.6424,-0.5342
Sr4Ga2Ge,11.4256,12.7011,1.2755
Pm2YHg4,14.1478,13.7131,-0.4346
AcAs2PtRh5,46.2779,36.018,-10.2599
PrGdPt2,49.8138,39.2191,-10.5946
RbCe(GaBr3)2,6.4245,8.2516,1.827
YRe2Hg,33.0466,29.2321,-3.8145
Nd6Co2SBr3,23.9106,21.2446,-2.6661
KLaTi3,17.4152,14.753,-2.6622
YRe2Hg,33.3299,29.2321,-4.0978
AcGa2Pd5Pt,30.8,27.7874,-3.0125
RbYHgO3,8.1308,7.7187,-0.4121
PmGaPb2,34.7008,36.8661,2.1652
SiNi2Au,18.614,19.3858,0.7718
Er3Tm4Th,34.768,36.9405,2.1725
YEr2(InHg)2,20.9724,21.2071,0.2347
AcHoGa2Pt5,61.0853,47.5827,-13.5026
Pr4ScIn5,9.5292,10.1809,0.6517
SiNiAu,22.7601,22.4968,-0.2634
NaGaFe2,23.4915,18.2194,-5.2721
Y2ErHgO,32.7931,28.6153,-4.1778
RhW2Se,44.0516,40.7524,-3.2992
Rb2Y(HgTe2)2,23.9315,21.9468,-1.9847
BaCoTc2,44.8142,36.0932,-8.721
Nd2Ni2Pt,29.6681,26.9956,-2.6725
AcGa5PdPt2,37.848,30.6215,-7.2265
LuScInRh,27.5315,25.4701,-2.0614
YHgRh,32.8911,25.4727,-7.4184
YNiC2,64.9685,51.1825,-13.786
HfTlTc2,95.2716,77.4625,-17.8091
CaFePS2,41.9849,31.0518,-10.9331
YHgSb2,34.5973,29.2308,-5.3666
YHgRh,33.0825,25.4727,-7.6097
LiEu2In,20.1698,20.3924,0.2226
AlFeCo2,20.4232,14.1914,-6.2318
KBaSiP2,7.9537,7.4384,-0.5152
CdHgSe2,29.0495,24.3932,-4.6562
YCuHgPd,22.0164,18.7205,-3.2959
AcGe2Pt5Pb,64.2824,50.6885,-13.5939
Er3Tm4Tl,32.6194,35.2552,2.6357
Ni2Bi2Pb,30.2887,33.0759,2.7872
YTaHg,40.7578,34.7367,-6.0211
Y2CuP2,24.4844,16.9951,-7.4893
Sm6P3S2I,24.3374,25.2971,0.9597
CsHf3Sc,93.6201,67.0772,-26.5429
BAsC2,30.5212,23.215,-7.3062
Y4AlHg,32.0182,25.995,-6.0232
YErZnHg,21.4535,20.6228,-0.8307
Na2RhPb,38.1921,33.1331,-5.0589
Co2CuRu,24.7939,21.8793,-2.9146
Li3Sm2BeNi12,7.3128,8.661,1.3483
Rb2ZrGaBr6,13.0217,12.1501,-0.8716
AcEuSbPt,55.8571,49.7453,-6.1118
NaRu2Br,23.1873,20.6941,-2.4932
Pr2TmTe,10.3523,13.111,2.7587
YTcHg,82.0646,68.6318,-13.4328
TlCrRh2,39.7988,33.3972,-6.4016
TlCrRh,36.6889,32.0888,-4.6
SrYIn3,19.9934,19.1303,-0.8632
NaPN2F,22.1042,17.3638,-4.7404
Cu2(BPt2)3,57.6163,41.1001,-16.5162
TiSbTe2Pb,38.3232,35.4743,-2.8489
V(InRu)2,33.7097,31.0448,-2.6649
TiInRe,13.6798,20.8628,7.183
ZrOs2Pb,59.0134,58.4561,-0.5573
TaTe2Br,33.8023,33.2038,-0.5984
InAsPb2,30.3658,32.5348,2.1691
YHgW,31.1035,29.1234,-1.9801
Tm2(CoB2)3,7.0374,8.9586,1.9211
CsNaCoO2,6.608,8.1874,1.5795
YHg2W,23.5641,21.7808,-1.7833
InFe4Sn,8.8156,9.0674,0.2518
Ac2CuPt6Rh,72.046,55.9553,-16.0907
K2CeF6,9.0003,8.679,-0.3213
PrPuOs4,38.9838,41.9477,2.9639
Er8Tl2In,32.3068,33.5697,1.2629
ScAlCo5P2,23.3938,18.5631,-4.8307
LiBe2Te,13.0105,11.4885,-1.522
RbBe2TlNi,12.7598,13.4737,0.7138
YErHgIr,30.2136,30.6371,0.4234
AcGa2HgPt5,58.348,44.2208,-14.1272
Nd2Y(InHg)2,19.5758,19.9883,0.4125
MoPS2N,40.0418,30.0125,-10.0293
Rb2CeGaI6,13.0517,14.6411,1.5894
Cs2GaSbI6,20.4494,20.8406,0.3912
In2GaBiSe6,34.9321,30.3408,-4.5913
GaAg(SnSe3)2,32.9942,26.9773,-6.0169
Zr2Al2Pb,44.9829,42.0034,-2.9795
Er4CuIr2,29.4775,33.0186,3.5411
HoVRu2,47.1918,42.4568,-4.7351
Y2HgRu,29.2654,25.837,-3.4284
YHg2Ru,16.6167,15.716,-0.9007
ScSeS2,45.8837,36.1738,-9.7099
GdYHgRu,23.6587,23.7534,0.0947
TeIrOs,43.3399,45.8379,2.498
CdHgTe2,23.2902,23.4121,0.1219
Ba2YHgRu,26.4528,23.3526,-3.1002
CdHgTe3,29.5491,27.6809,-1.8682
Er4IrPt3,52.5167,44.4184,-8.0983
Er4OsAu3,36.916,39.8165,2.9005
Fe4Sb3,36.4628,30.1393,-6.3235
La4YHg5,25.1049,19.422,-5.6829
YHgSe,32.1916,26.3174,-5.8742
Ba3AcPt2O9,14.9803,12.5596,-2.4207
GaSbMo,17.5028,18.4676,0.9649
Rb2(AgBr2)3,14.4318,12.562,-1.8698
Ce2Y(InHg)2,19.7259,19.8517,0.1258
MnTcBi2,70.9938,63.2817,-7.7121
NaMnPt,67.6977,57.4621,-10.2357
Tc2NiS,55.815,45.4552,-10.3597
K2NaTc,34.4631,28.1808,-6.2823
SbRuW2,44.6643,41.7833,-2.881
Pm2IrPb,35.9958,38.6487,2.6528
SbRu2W,48.7944,41.2498,-7.5445
Pr3InNi,8.1312,7.1585,-0.9728
AsPd3I,18.0857,18.8524,0.7667
Rb2YHg,14.1361,11.0236,-3.1125
SrAlPb,23.3597,25.068,1.7083
Rb(CuSn3)4,37.629,33.2387,-4.3903
TeIrPb2,47.8511,49.094,1.2429
AgHgW,67.949,51.1882,-16.7608
IrOsPb2,48.4399,50.6431,2.2032
V2GaSb,77.9927,61.6209,-16.3718
AcCe2Si2Pt7,63.2516,47.9356,-15.3161
LiY2Hg4Pb,19.9447,17.9824,-1.9623
TeIrPb2,48.1648,49.094,0.9292
TeIr2Os,43.2735,45.8503,2.5768
AgHg2W,50.9599,38.756,-12.2039
Ir3OsPb,48.0479,49.496,1.448
YSiHg,29.3684,25.8107,-3.5577
TeIrOsPb,39.2253,43.6975,4.4722
Ag2HgW,58.9915,44.6005,-14.391
Tc2RhSe,70.9453,57.0032,-13.942
KTcRhSe2,52.2354,38.9349,-13.3005
Tm2Be3Si4Pt,33.546,26.5708,-6.9752
YSiHg2,22.0627,18.7984,-3.2644
Sm2Y(SnHg)2,20.7982,20.3369,-0.4614
BaMnRu3,32.7647,28.7993,-3.9654
TePb4Se3,49.1292,45.4971,-3.6322
ZrTi2Sn,42.9182,33.3593,-9.5588
TcRhSe2,59.5993,49.191,-10.4083
Sr2Zn2I,10.6634,12.1381,1.4746
Nd2Tm2Tl,28.1256,30.9333,2.8077
Pm2TcGe6Rh,18.7528,17.4649,-1.2879
TcRh2Se,59.9949,46.8505,-13.1444
Ce2TcGe6Ru,14.754,15.2205,0.4665
Ni2GeAs,5.1379,2.3085,-2.8294
La2YCd2,27.1052,23.7648,-3.3404
NiGe3As,17.535,14.5062,-3.0288
BaMnRu2,33.8585,30.9878,-2.8707
Tm2AlSi4Pt3,42.3003,32.2644,-10.036
Sb3PtRh,55.3996,42.7057,-12.6939
VSb2Pt,77.1652,60.3069,-16.8583
AcLaBiPt,64.3035,56.3952,-7.9083
CoBi2SbO8,18.4235,18.535,0.1115
HgTeIr4,36.5899,37.7239,1.134
Rb2GaPt2,34.5418,28.1882,-6.3537
HfTc2I,88.5374,69.9465,-18.5909
Nd2SmHg2,11.0234,14.005,2.9816
KPr2SeO5,4.81,2.5241,-2.2859
CsNaTaOF5,12.4357,11.0889,-1.3468
LaZr2Mo,66.1152,56.2929,-9.8223
Ba2LiCoN,46.2172,39.768,-6.4492
RbPaSb2,39.3728,37.5859,-1.7868
Hf2CuPb2,73.9865,58.767,-15.2194
ZrCo2AsS,42.9157,33.6704,-9.2453
H8Ir3Au2S,20.3804,20.4722,0.0918
HfB3Pb,41.1006,33.5004,-7.6003
MnCoIrN2,75.072,64.9739,-10.098
Y2MnHg,50.2009,37.2797,-12.9213
EuDy2As,23.2725,25.2186,1.946
ScAsRhBr2,27.875,20.6503,-7.2247
HfThAu,85.5057,73.348,-12.1576
ErPu3Au4,53.818,55.6618,1.8439
SrGa6Ag,11.6507,11.7411,0.0904
ErTh3Au4,51.4602,53.5071,2.0469
Y2MnHg,50.2003,37.2797,-12.9206
Nd3Y2Hg3,21.4805,20.0421,-1.4383
KSeBr3,10.3334,9.7287,-0.6047
KSeI3,18.1432,17.3057,-0.8375
YMnHg2,37.4575,30.4671,-6.9904
K2Zn3Sn5,12.1894,13.2932,1.1038
PmPr3Nd4,8.9253,11.0783,2.153
Er4USb5,40.1481,38.0864,-2.0617
LiAlPb,22.6747,22.1306,-0.5441
HfMoPt,65.3807,48.7495,-16.6312
Sc2AuI,20.172,22.3397,2.1677
Nd2Tl2Pb,36.3922,39.124,2.7318
ScCu,5.7077,0.7833,-4.9245
Y4Tl2GaHg,29.7202,28.4537,-1.2664
Ba2Be2Br,4.5798,4.4375,-0.1423
MnTeIrC2,63.7243,50.5207,-13.2036
NdYHg4,12.1945,11.3857,-0.8088
Nd7YHg2,22.5345,22.5599,0.0255
AcPrTh,42.0056,45.0437,3.0381
NbSn2Te,56.8349,49.5171,-7.3179
U2GaSb,47.6154,47.9273,0.3119
ScAu2S,43.4227,44.5197,1.097
NbTe2Pb,70.0517,62.2069,-7.8448
BaTeRu3,20.5571,20.6373,0.0802
Gd2YMg,19.7991,21.2574,1.4583
Nb3SnPb,101.3879,83.5057,-17.8822
NbTe3Pb,64.2068,56.2323,-7.9745
Re3AsPd,31.2156,33.6181,2.4026
ReAsPd2,21.9022,24.7564,2.8542
TbLuOs,33.7309,37.6369,3.906
AlCrCoHg2,14.3628,9.0691,-5.2937
EuYMgHg,20.1294,18.872,-1.2574
CaMnRh,33.9285,24.6901,-9.2383
Nd4SiGe,14.529,16.576,2.0471
MgSi2,0.0,1.7659,1.7659
Ti2BeSb,22.0022,19.6807,-2.3215
MgSi2,0.1606,1.7659,1.6053
LiPr2Ru,29.3726,28.2476,-1.125
Sr3(SiPb)2,37.2775,31.0449,-6.2326
Zr2RuN,67.0976,60.1005,-6.9971
NaPr2Sn4Pt3,35.9638,28.9002,-7.0636
Nd(DyPt)2,44.4633,37.1201,-7.3432
Er6Tm2Sc3In,23.0984,24.1457,1.0472
SrTePbI2,26.4806,27.4118,0.9312
Na2ReAg,32.0867,28.1076,-3.9791
Sc2Pd3,12.2854,11.5602,-0.7252
RuPbAu2,41.3521,43.2085,1.8564
NaYHgCl6,17.6005,16.916,-0.6845
Hf3Pa,124.742,93.5357,-31.2063
Nd(ErTh)2,43.1133,47.1205,4.0072
PbWBr3,31.476,30.0653,-1.4107
TaNi2W,25.7528,28.0115,2.2588
CeNd2Pd,22.709,25.4949,2.7859
Pm4InSi,16.9621,18.4779,1.5158
Ac2NdPb2,46.6722,49.5749,2.9026
Pm2PrNd,17.4022,19.6584,2.2562
Sc3Ag4,19.8399,18.0959,-1.744
BaNaCa2Se,32.6835,25.9932,-6.6903
Ba6Pt3Br2,25.9554,19.5202,-6.4352
KZnSb2,27.5465,24.1854,-3.3611
CeThAu6,46.2478,47.8059,1.5581
Sm2YHg5,11.9941,11.5147,-0.4794
NaScTl4,38.9222,38.9932,0.071
DyErCdSi,22.3176,23.0792,0.7617
TaNb2Fe5Co2,37.6538,29.1508,-8.503
LaCuAs2,13.3049,12.8605,-0.4444
La3InMo,38.1029,30.0855,-8.0174
Cs2Mg3(As2O7)2,2.3706,2.0643,-0.3063
SrCdAs2PbO8,2.8498,3.9121,1.0623
SbPb2W,47.8311,48.2984,0.4673
SiAs2Pt,41.7181,34.3632,-7.3549
SbPdW2,35.9675,37.0896,1.1222
SrErZnGe,14.8461,16.7478,1.9018
Sb2PbW,45.5517,44.3013,-1.2505
Dy2Ga5Ru3,9.51,11.3121,1.8021
CeErTl6,44.6833,45.7093,1.0259
PuPa2,68.9646,72.3756,3.411
SbPbW,45.8734,45.7952,-0.0782
SbPb2W,47.7086,48.2984,0.5898
Sm3Y2Hg3,21.6166,20.2058,-1.4108
GdAs2Au,16.0296,18.6301,2.6005
NaGeSbI2,24.8845,22.5348,-2.3497
ZrCu2Au,39.7794,37.3127,-2.4667
SbPbW,46.6869,45.7952,-0.8917
Sr3CaRh,17.5126,14.7377,-2.7749
GdZrPa,65.1613,62.9386,-2.2227
Zr2CuAu,62.6199,57.6272,-4.9927
MoWCl,24.3742,23.664,-0.7101
Np2Ga5Rh3,25.7189,23.6068,-2.1121
DyEr2(TlCd)2,32.1839,34.1376,1.9537
Ag2Ge2Pt,34.4373,27.5926,-6.8447
Nd(TlBi)2,42.9044,44.9369,2.0325
Be2TlW,28.7865,28.2336,-0.5529
Ga3SnPb,20.3788,21.1323,0.7535
LaY2Cd,24.4972,23.291,-1.2062
SiTcCl2,29.7937,23.9322,-5.8615
Nd(TmAu)2,30.6812,33.9338,3.2526
Nd(TmTh)2,43.6294,47.6277,3.9983
SmSiPd4,12.0467,14.1339,2.0873
W3IN,33.0776,33.3436,0.266
Pm2ZrGe3,28.5937,27.8023,-0.7914
SrLuGa4,13.0672,14.6676,1.6004
VZnGaCo,44.6173,33.294,-11.3233
YThHg,33.6534,33.7294,0.076
CaDy2YHg4,10.2803,10.5485,0.2682
LaBeRe2,33.6127,32.8205,-0.7922
EuTm2Pb,35.3046,37.3026,1.998
ZnSb2TeP,29.2471,25.6925,-3.5545
NaTcGe2,33.887,30.414,-3.4729
Yb2SbCl,28.3332,28.2497,-0.0835
ThSiPt4,65.0591,49.506,-15.5531
Sm3(YHg2)2,15.7327,14.9255,-0.8072
DyY3Hg5,19.4378,16.8067,-2.6311
YZrHg,44.0117,41.9348,-2.0769
K2HoNi3F12,8.0223,10.3352,2.313
TmMnP,29.1775,28.0915,-1.086
SiTcCl2,29.8548,23.9322,-5.9226
Li2CeYHg4,11.3368,10.3608,-0.976
CrInSbTe2,32.4763,29.1279,-3.3485
CsLa(PO3)4,9.4887,7.7047,-1.784
SiTcCl2,28.7726,23.9322,-4.8404
CsLa(PO3)2,17.0809,13.6124,-3.4685
YMgZrHg,37.8035,32.5033,-5.3002
CdReAgIr2,60.2069,51.3346,-8.8723
Lu3Pa,42.1604,45.5405,3.3801
SrLaTl,35.1061,33.5699,-1.5362
SrLa3Os,36.3724,31.3034,-5.069
SrZnAg,17.663,16.0792,-1.5839
KCa6,6.8437,7.208,0.3643
PmNdGa2Pd5,18.7857,19.2576,0.472
TaInSi,23.8892,24.6268,0.7375
Nd4YTm3S8,39.188,31.9169,-7.271
PmZn2Ru,20.4575,20.769,0.3115
Te2PRu,26.4283,26.9996,0.5714
Ba2AlW2,25.1158,23.8902,-1.2256
BaCuSb,18.2407,16.6034,-1.6373
Co2AsOs,25.1316,23.0778,-2.0537
Rb2Ge2P,8.781,5.4173,-3.3636
Na2La2Br7,19.5638,16.4605,-3.1033
NaTa3Br,31.8471,32.184,0.337
Tl2CdI,35.7887,36.3935,0.6048
Y4ZrCo10(B2C)5,48.8694,40.62,-8.2494
Li4CuRu,4.8567,5.628,0.7713
NaLa3Br,38.78,28.8334,-9.9466
Na6Ge2Pt,28.2266,23.2357,-4.9909
CsScS2,44.6119,38.5368,-6.0751
ScCr3Mo,17.5056,15.6325,-1.8731
Cs9Na3Ca3(BO3)7,10.8275,9.0989,-1.7286
CoHgAsSe2,34.5842,30.3067,-4.2774
ScCr2Mo,18.6652,17.6653,-0.9999
ScCrMo,21.8942,21.4498,-0.4444
Ba5Sc,1.0143,2.594,1.5797
KGaC,23.0121,18.3449,-4.6672
CaCI2,22.9532,20.757,-2.1962
ScCrMo2,20.0815,20.7773,0.6958
YMg2HgGe,13.28,12.1075,-1.1724
Ca2CI2,22.9288,19.6426,-3.2862
Ag7As,28.7566,23.0326,-5.724
ErSc4Bi5,31.5861,33.2781,1.692
ErTm3Au4,37.9297,39.8906,1.9609