Formula,E_hull_DFT (eV/atom),E_hull_ML (eV/atom),Delta (ML - DFT)
ErBPd,9.2034,15.0392,5.8358
Ga2Te2Br,22.2719,21.9059,-0.3661
MnAlSe2,49.4566,40.3988,-9.0578
Cu3(PbSe)2,31.6477,29.8596,-1.7882
YTmBr6,12.4182,13.1761,0.7579
La7Ce,48.3638,33.4772,-14.8867
Mn2Al2Se5,48.9041,39.8613,-9.0428
Na2La2Al,31.224,22.9411,-8.2829
CsOs2Ru,26.7598,30.7587,3.9989
Dy,23.7012,31.3683,7.6671
Sr(ZnCd)2,14.1155,13.3047,-0.8108
Ce2ThGa2,20.7348,24.655,3.9203
MnGeP,24.6363,21.4234,-3.2129
La7Tb,43.6472,28.8219,-14.8253
TlNi2C,26.1712,24.3972,-1.774
Be2TeI,26.7711,27.8885,1.1174
HfTiCu2,33.8894,26.5371,-7.3524
KSnBi,28.9648,29.6006,0.6358
AgTeBr2,24.0515,22.8918,-1.1597
Y2TmHg,32.7717,28.1669,-4.6048
Ca2Tb2Ag3,22.2971,20.7327,-1.5645
Sc3Si3Mo2,28.3138,25.4073,-2.9065
Y2TmGa,17.0247,18.4888,1.4641
Si2IrRu,26.181,22.2748,-3.9063
Be2AlTe,24.5244,19.6095,-4.9149
LaNpPb6,54.4718,53.3118,-1.1601
LiCaYIn,15.6888,13.2108,-2.4781
Cs(ThAu)2,45.6449,48.6724,3.0275
CaPrYIn,13.5839,12.3517,-1.2322
ZrP3,27.0277,23.4535,-3.5743
La17Ce,50.2029,33.4095,-16.7934
ScBeGa2,8.0579,8.6058,0.5479
LaTbAu6,44.58,44.1401,-0.4399
La2BiPb5,47.6428,44.827,-2.8158
Pu(MgH2)3,11.3545,10.5868,-0.7677
Ac2NdEr,46.0177,49.3748,3.3571
Li3IBr2,18.9612,17.0572,-1.904
BaScIn3,16.9545,14.6498,-2.3046
Er2HfTl,63.2958,54.4614,-8.8344
CaYPtPb,44.5291,35.808,-8.7211
Tc2AuSe,70.7257,62.0514,-8.6743
NaY2NiPd,63.4667,53.7307,-9.736
CaYInPb,27.3625,26.2102,-1.1523
TcAuSe2,59.2678,51.8307,-7.4371
FeCuC2,44.8685,33.3427,-11.5258
BeNiS2,30.3289,23.6369,-6.692
Rb2PdI,8.3543,9.6919,1.3376
Ac3La(ThBi3)2,57.8832,58.1615,0.2783
Ca2IrW,31.0154,29.7586,-1.2568
TcPt2Au,79.8501,63.7146,-16.1355
Pr4YEr,6.6395,7.4256,0.7861
AcLa(HgPb)2,32.9169,32.1629,-0.7541
TiCo7,14.2599,14.5916,0.3317
Sb2Rh2Se,41.9973,31.4144,-10.5829
CaCr2In,15.5952,13.3901,-2.205
La7Ce,48.3588,33.4772,-14.8816
Zn2Cd2Au7,34.8642,35.7672,0.903
FeSiSI2,25.2292,19.8481,-5.3811
GaW2I,28.136,31.1086,2.9727
Tl2Cd3In2,28.4364,29.2112,0.7748
Ca2Tb2Tl3,30.5259,32.2526,1.7268
Hf2TlSn2,69.7469,55.4953,-14.2517
Cs5Au2BrF,22.5099,23.5019,0.992
ScCdPb2,32.1781,33.8166,1.6385
Ni2P2Ru,7.5354,8.4978,0.9624
Cd3(InSn)2,19.8572,20.7903,0.9331
Sc(CuS)3,30.9237,22.0225,-8.9012
ScNiSN2,28.4786,24.5948,-3.8838
ScFeCl2,18.8724,17.0595,-1.8129
Tb2Pm(Y2Er)3,20.7856,22.3957,1.6101
Na2HfTa,58.8046,47.1746,-11.63
KVZnPb2,50.9387,45.1938,-5.7449
Pr(Y2Er3)2,21.2105,23.1329,1.9225
Zn5Rh4,25.7529,20.8257,-4.9272
Na2GaBi2,30.4194,29.8365,-0.5829
Ca2Nd2Zn3,13.2868,13.1111,-0.1757
GdLuPd2,23.714,26.5274,2.8134
Na2PmCdSb2,26.6486,22.7969,-3.8517
Tb3Tl3Hg2,28.6168,30.1965,1.5797
NiPd3Ru,16.7071,18.0189,1.3118
Na2CdCuAs2,12.4799,12.4405,-0.0394
Li2ReSi,19.3361,18.9942,-0.3419
LaNiPb,25.8684,25.1118,-0.7566
Th4FePb2,53.9324,55.1106,1.1782
Pr2Nd3Ho4,15.2321,18.6518,3.4197
TbThO4,12.8136,15.8522,3.0386
YTh2MoC4,48.1072,38.3847,-9.7225
La2TlGaO6,26.7282,25.4024,-1.3259
NaCd2TcBr,34.41,30.44,-3.9699
Pr12Sm5Er2,6.8128,8.1753,1.3625
Ca3(SmPd)2,13.9399,16.0119,2.072
NaMgTl4,38.4648,38.3467,-0.1181
BeTe2Pb,34.6869,33.7259,-0.961
Np4SeS5,59.9599,52.458,-7.5019
Ba8La(BN2)6,1.4118,1.7906,0.3788
CsNa3Ni,21.2394,18.6299,-2.6094
YTcI2N,60.432,51.8929,-8.5391
Sb3OsPb,46.3646,40.6746,-5.6901
Sc2SnGe2,23.6215,17.5267,-6.0948
InAsOsPb2,36.8294,37.5243,0.6948
AgP2PbO6,8.7712,8.0934,-0.6778
BaScFe2,28.7956,24.1145,-4.6811
LaFeTc,48.8059,40.3528,-8.4532
Yb3PI3,25.06,25.0582,-0.0018
Rb2PdI7,17.621,17.7517,0.1307
Sb2TePb2,43.882,40.7301,-3.1519
CoSb2TePb,40.108,34.0287,-6.0793
RbPdI2,12.9102,14.6834,1.7732
NaCaSb,26.3278,21.0277,-5.3001
LiPaOs4,39.1522,42.8275,3.6753
TbAg(PO3)2,5.1245,3.9745,-1.15
Al2TlMo2,19.5215,18.9278,-0.5938
PuAg(PO3)2,8.9594,7.4392,-1.5203
RbSrTa2Os,35.4484,31.1636,-4.2848
Cd2OsAu,32.2249,34.2339,2.009
Tb3Sm3Tl2,31.8666,33.6435,1.7769
Te3PtAu,48.4765,43.2792,-5.1973
CdTeI3,26.1199,25.661,-0.4589
Cd2ReAu,61.1266,53.6042,-7.5224
TmAg(PO3)2,5.5399,4.367,-1.1729
TePbBr,45.0232,40.6472,-4.3761
CaMg2CuH8,5.4726,4.879,-0.5936
CoPbBr2,30.0933,26.3285,-3.7647
NpAsPdS,30.4079,29.8227,-0.5852
ScGe2Rh,10.9382,6.4751,-4.4631
TbBiTe3,36.3254,37.8832,1.5578
NpU2(PdS3)2,52.0874,44.3259,-7.7615
K(Ag2S)6,38.265,28.5204,-9.7446
La2NpHg6,18.8025,15.528,-3.2745
Sc12Sb6C,22.1794,17.2366,-4.9428
Nd6Dy6Ho,26.466,27.7651,1.2991
K3SmCl6,2.5274,4.1639,1.6364
K3SeCl6,6.7356,6.2347,-0.5009
LaCe3(ThBi3)2,48.0784,48.3767,0.2983
La2RuAuSe,42.4655,33.8954,-8.5701
Sc(Ga3S4)2,36.0964,27.9405,-8.1559
AlAgAs,12.8754,9.6728,-3.2025
RbOsI2,23.2561,23.9059,0.6498
Hf2Sc2Hg,53.1984,39.1604,-14.038
PmMg2ZnH8,4.9907,4.8172,-0.1735
Th2ZrGe2,41.8589,41.6364,-0.2224
La5CePm6,36.0187,29.5639,-6.4548
Pr3Y2Er3,13.9426,14.5368,0.5942
La2PbBr,44.397,33.6619,-10.7351
Th(ZrGe)2,55.7101,49.9395,-5.7707
Si(GeIr)2,17.5985,19.5806,1.982
TiSeI2,20.1884,21.3728,1.1844
CeYTcPt,89.612,74.8858,-14.7262
Hf2SbBrCl,76.5291,57.3768,-19.1524
Cs4NaBr2,19.9257,19.618,-0.3077
LaPbSe4,49.298,39.9911,-9.3069
Lu2In3Ir2,29.9276,32.4092,2.4817
Sc2NiI,11.5587,12.6544,1.0957
CuBiAu4,41.8474,43.0344,1.187
Cs7Au3F,26.3221,27.6195,1.2974
LaSc2In,21.4998,18.5434,-2.9565
PrY2ErSe4,29.2641,25.5629,-3.7012
NdYAlTl,37.8946,35.2986,-2.596
RbGaBr6,9.3531,9.2538,-0.0994
Y(InSn)2,23.3,20.914,-2.386
NpTiS4,49.1744,40.7564,-8.418
InOsBr2,22.2643,22.8367,0.5724
TaTi2Sb,15.7897,19.5024,3.7127
KTaAg,27.4932,26.8009,-0.6923
Pr2Co2Ge3,0.3598,1.0015,0.6416
Ga(SiRu)2,18.9048,14.6226,-4.2822
Ta2Be2Pb,23.2516,25.2911,2.0395
Np(GeS3)2,41.4544,31.8192,-9.6352
PuNp3S4,62.2478,55.0359,-7.2119
Na(FeC)2,30.283,22.2821,-8.0009
CoS4O,34.6361,27.0229,-7.6132
Ce4Si3Ir,22.7653,21.9406,-0.8247
BeHgBr2,5.5112,6.399,0.8879
ScCoCuTc,80.9683,67.9585,-13.0098
Cs2InAuF6,14.9274,15.0925,0.1651
LaScIn3,26.2692,20.8424,-5.4268
Li2LaFe,30.4577,22.5222,-7.9354
NaLaIn2,28.7023,24.122,-4.5803
CaGaGe,3.3737,6.124,2.7503
LiEu2WO6,16.05,17.9898,1.9398
NaFe3C,23.9203,18.3,-5.6204
FePHPtSe,41.1071,32.3423,-8.7648
La2ScIn,33.2011,24.791,-8.4101
NaBeCd3,18.132,16.5502,-1.5818
Na3TaCd,27.2843,24.4956,-2.7887
NpGa2Co2C,28.156,26.2532,-1.9028
NaSr4O,3.3071,4.0113,0.7041
KZnIr2,31.1965,28.7856,-2.4109
Ti3GeIr,15.5882,16.9123,1.3242
Pu2GeI2,39.1269,40.9809,1.8539
EuSnRh,32.1407,28.9177,-3.223
ScBeW2,27.0045,26.5482,-0.4563
Ti6Ge4Ir,10.7825,12.6336,1.8511
YPd3,24.6619,23.4766,-1.1853
Pr3Y2Tl3,16.9099,18.8846,1.9747
Sc(BeW)2,16.1163,17.364,1.2477
Rb4TeO,5.1317,4.5981,-0.5336
BaNi2Te,15.2951,11.8798,-3.4153
Li2PAu2,20.6394,19.8554,-0.784
KNpAgS3,40.2943,34.2744,-6.02
NaYInPd2,25.8887,23.0131,-2.8756
Y(GeRh)2,27.0598,21.3589,-5.7009
Sc(BeMo)2,10.4657,10.9344,0.4686
PuInNiPt,47.5479,41.4319,-6.116
Y(SbAs)2,24.6465,22.0363,-2.6102
Ac2Pr3Co2,18.1132,20.6855,2.5724
SmY4TmS8,38.4629,30.5904,-7.8725
La2SmGe2,23.0842,18.7072,-4.3769
NaLiTl3Pb,35.7936,36.4186,0.625
BaCaPb,19.2406,20.9366,1.6961
Na2CaIn9,19.3073,19.0845,-0.2228
BaCaOs2,23.3436,25.3997,2.056
CdIrI3,27.4414,27.8047,0.3633
La3(PmY4)2,24.2891,21.3088,-2.9803
Pr2Y3Pt2,30.2622,22.2751,-7.9871
TmAgSb2,37.5119,28.7448,-8.7671
SrGeTe2,26.2335,26.3277,0.0942
La15Pm,49.9961,32.7166,-17.2795
SrTc2Te,60.9934,54.1547,-6.8388
Np2S5,36.2158,27.8211,-8.3947
LaPr2Bi3,27.9815,28.54,0.5586
BaScBe2,7.2384,5.4667,-1.7717
La3NdTl4,47.4535,41.8717,-5.5818
Y2Ga3SiPt4,47.8817,34.8392,-13.0425
Ce2PaGe2,26.8263,29.283,2.4567
Ni(SbAu)2,38.2026,34.0973,-4.1052
TlSb2Ru,34.7669,32.2695,-2.4974
YBiCl6,27.9718,27.9429,-0.0289
Zr(SbPd2)2,37.8047,31.7887,-6.0161
CeMgZnBi,22.8505,23.9009,1.0504
Tl(Cu3S2)2,28.7793,24.2521,-4.5272
Tb2DyB6,8.855,11.7151,2.8601
Li2Sc2Sn,8.7821,7.4265,-1.3556
Ba2LiSn,4.3005,6.3415,2.0411
Ce2Nd2Co3,16.6429,19.2499,2.6069
YReRu,20.0246,19.6521,-0.3725
Y3CuSi2Pt9,69.6113,48.2297,-21.3816
InRuBr2,19.5959,18.1905,-1.4054
BaYIO6,21.6026,18.3432,-3.2594
Mn2AgRh,69.986,55.7781,-14.2079
GdPb3,46.6096,48.9446,2.335
CaTa2W,29.6972,34.2772,4.5799
Ta2Co3Au2,51.2614,42.0838,-9.1776
PrTm12Sc7,20.2335,21.33,1.0966
RbZrTl,46.5069,42.1187,-4.3882
Tl2AgSb2,41.9047,37.5402,-4.3644
Cs2TaAuF6,21.8878,19.5701,-2.3177
Pr3GeO6,5.4453,3.8104,-1.635
YSi2Pd2Pt,37.9585,29.7218,-8.2367
LuBi2Pb,48.5824,50.6064,2.024
Rb2ZrI,29.0487,24.1041,-4.9445
Rb(ZrI)2,45.1187,36.8023,-8.3164
MgPa(CuH4)2,12.3219,12.3521,0.0302
Sm2ScCu,31.1169,29.0201,-2.0967
NbTe2Au,63.6169,57.6961,-5.9208
ScCuSn,36.526,31.8805,-4.6455
LaMg(AlH3)2,9.8744,7.7734,-2.101
Ba2MgBiO5,-0.0,2.6717,2.6717
PrY7Tm12,23.4019,24.3349,0.933
TaSb2,42.5677,38.5746,-3.9932
Sm4Cu2Sn,31.9388,31.8171,-0.1217
NaCaNb,47.937,42.2286,-5.7084
ZnRh,18.8993,18.9026,0.0033
Ca2TaSb,20.4988,20.3892,-0.1096
LaTb6Pr5,15.6068,15.6031,-0.0036
Sm2Cu2Sn,29.7713,29.6879,-0.0834
AlB2I,6.4648,7.0852,0.6204
Ca2MgGeO5,13.7506,13.7594,0.0088
K(TlCl2)2,17.6331,18.185,0.5519
Ni2GeF,13.4174,13.1961,-0.2213
Y2SiPt,47.2874,39.0225,-8.2649
La(PrGe)2,5.9392,5.6669,-0.2723
K2Ag3Cl5,9.9219,8.9812,-0.9407
ZnInTc,40.3678,37.1151,-3.2526
NaLi2NdP2,15.7844,12.4748,-3.3096
La(PuGe)2,33.4551,32.9105,-0.5446
AgMoBr2,14.2778,14.1317,-0.146
Zr(TaNb2)2,105.6808,89.5266,-16.1542
LiCuBr2,19.3949,16.6311,-2.7637
ZnIn2Tc,35.265,32.8475,-2.4176
AcGdTm,41.5636,44.7425,3.179
NbPtI3,60.8347,48.9216,-11.9131
PrYInSn,22.5565,19.2918,-3.2647
Nd(NbGe)2,64.6627,55.8536,-8.8091
LiPrIr,7.2566,11.1222,3.8656
Ti3MoOs,7.296,10.3012,3.0052
Sr2AsP,18.0777,17.1875,-0.8903
CaTaSb2,34.5037,30.2813,-4.2224
Cs2NaAuF,24.8571,23.8244,-1.0327
Cs2LaPbS4,41.7716,33.275,-8.4966
Hf(ZrGe)2,62.9277,49.4051,-13.5226
CaTaSb,30.9266,28.2432,-2.6834
Pa3(ZnTc2)2,65.1979,60.7203,-4.4776
TlTe2Ir,45.4366,45.4944,0.0579
La2Tm3Co2,29.5284,26.7483,-2.7801
PrSe3,28.7453,23.1935,-5.5518
K2Cd15Pb2,21.8945,22.1925,0.298
ErRh2Pb,44.5406,39.074,-5.4667
Si2GeAu2,22.9792,21.7252,-1.2541
Ac2Nd3Co2,30.7173,33.2979,2.5806
Ca3TaSb,21.2147,19.2505,-1.9642
Ti3NbPd,26.6714,26.1388,-0.5327
Cu(GeIr)2,16.0988,20.0068,3.908
PmYMgTc,68.3879,61.0859,-7.302
Y2MnTlIr,44.9663,42.2876,-2.6787
TaBe2Mo,19.5904,19.3326,-0.2578
NaSr(CdIn)2,20.7964,19.0573,-1.7392
Cs2TeAuF6,22.6955,20.5246,-2.1709
Sm3(ThCo)2,31.2127,34.2929,3.0802
CuGeIr2,25.7504,28.4982,2.7479
Zn4AsIr,16.7921,15.8118,-0.9803
TbY7Tm2,18.7025,20.8161,2.1137
Sb3AsIr,38.2247,32.4141,-5.8106
Na2PuGaSb2,31.1189,27.0446,-4.0743
TaSb3,43.3822,37.21,-6.1723
NaNbCd,51.4004,44.5913,-6.8091
CuSbAu,29.1289,27.9776,-1.1513
CeSm2Pd,22.8625,26.0701,3.2076
TmGa2,11.2736,14.5177,3.2441
Ce2ScGa,15.9934,19.0845,3.0911
CeScSn,21.0681,20.1653,-0.9028
K(GaTc)2,37.782,35.1392,-2.6427
Cs(LiSb)2,19.6679,17.1048,-2.563
Ce2ScGa,15.6511,19.0845,3.4333
Ce5Ga4Ag,18.5411,20.224,1.6829
Ca2NdLu,17.3253,19.8797,2.5544
Y9Mn9P4,49.3021,38.0692,-11.2328
Ce2GaAg2,19.5482,19.7281,0.1799
NbCuB2,48.1249,33.6962,-14.4287
Zr2Mn2Sb,79.8184,63.2749,-16.5436
K2FeIr,17.9104,18.2408,0.3303
Mn(Ru2C)2,44.6217,37.228,-7.3937
TcPdI2,35.6343,33.5282,-2.1061
Pr6PtRh3,13.9992,8.8774,-5.1217
ZrSnRu2,30.6443,30.5454,-0.0989
Ni2Ru2Au,12.487,17.3504,4.8633
ZrNbTeBr2,61.3668,50.6495,-10.7173
Pr8BiIr2,9.0183,10.7177,1.6994
Cr2Ir3Os2,34.3994,35.943,1.5436
Tb(NdGe)2,12.6563,16.44,3.7837
Tc,65.9974,62.4115,-3.586
InPtBr,41.2409,33.1507,-8.0902
Ca2FeTc,41.9777,34.3006,-7.6772
Ba2NaAuF,14.9611,14.0592,-0.9019
LiURh2,41.342,35.6677,-5.6743
K3TaAg,22.1392,20.1659,-1.9733
SmYNi,63.595,56.9945,-6.6005
MoRuS3,42.3394,31.7789,-10.5605
ZrTaGa2,58.326,47.4993,-10.8266
YSb2PtAu,48.8748,38.7564,-10.1184
LiGdO2,21.187,21.8549,0.6679
ThIr4Au,47.5426,50.8104,3.2678
AcLa2Br8,21.8698,19.693,-2.1768
Y2SbPt,39.4982,32.2391,-7.2592
CaPt3I,60.4891,41.7351,-18.754
La11Ce,49.4629,32.7563,-16.7066
La11Ce,49.4722,32.7563,-16.7159
Al3Cu2Si3,23.6938,19.9062,-3.7876
P2Rh,18.7153,16.2704,-2.4449
Ir3PbC,49.3642,46.9213,-2.4429
ZrZnPb3,53.1842,49.6129,-3.5712
Ti3NbTl,34.342,32.9757,-1.3663
Sn2Rh2Au,37.3727,32.3566,-5.0161
NbIn3Ni,42.0382,37.6277,-4.4105
NiBIr3,29.8247,31.8089,1.9842
YSb2TePt,47.8585,37.0241,-10.8344
LiCoRu2,10.4976,13.394,2.8964
Hf2ScPb,86.2155,66.6617,-19.5538
PRu2Rh,25.4753,23.1672,-2.308
Sn2RuPb2,28.0632,29.9279,1.8647
MnHgAu,49.2141,43.7348,-5.4793
LiSbIr2,32.8523,33.2409,0.3886
Ac2NdGe2,28.6641,32.6155,3.9515
Sc2TaCu,83.3285,68.3925,-14.936
AcTb2Sm3,32.4983,34.8979,2.3996
AgSnP3,13.5929,12.8962,-0.6967
Ta(CuRh)2,24.1511,20.3394,-3.8117
Sm2Cd3Cu2,17.0683,18.4946,1.4264
LiZrCu,35.7848,30.385,-5.3998
AcTbSm,34.3247,39.1228,4.7981
PRuRh2,40.6151,31.4922,-9.1229
Fe2PbBr,19.3711,18.0222,-1.349
LaNpAu4,51.3467,49.9863,-1.3604
Na2ZnIn5Ag2,19.4591,18.1938,-1.2653
Ti3SnAu,22.429,16.9892,-5.4398
Nd3Dy(TlS2)4,45.983,38.6283,-7.3547
LiSbOs2,32.5355,32.543,0.0075
V3NiIr,88.0324,71.0471,-16.9854
TaTi3Sn,13.9278,12.4261,-1.5017
TeAsOs,32.4198,33.8123,1.3924
Ti3ReTc,19.5249,21.9508,2.4259
Rb(NaSn3)2,19.3919,18.9474,-0.4445
Pm2Pr4ErSc,8.8825,10.3615,1.4791
ScSi3Sn,30.5664,22.8565,-7.71
Ti3BiTe,15.4717,18.2716,2.7998
RbNa2Sn,17.9805,15.5828,-2.3977
Sn2SbOs2,28.3372,29.8142,1.477
RbNa2Sn,17.8979,15.5828,-2.315
ScBe2In,12.8306,10.2025,-2.628
CsNaI,23.2583,22.999,-0.2594
GaSb3S,40.4842,30.6465,-9.8376
Rb2Na5Sn4,18.9551,17.0977,-1.8574
ScBeIn2,16.3682,13.9399,-2.4283
Hf3CdH,70.8203,49.1054,-21.715
Cs2AlBr6,12.2037,13.6848,1.4811
PmThO4,12.5521,15.4988,2.9468
LiLuSn,17.9824,20.0986,2.1162
CaCoIr,29.4122,26.5837,-2.8285
CaYTc2F,70.8099,60.062,-10.7479
Y4TlIn3,22.1257,22.4351,0.3095
SbWCl2,18.2822,17.9326,-0.3495
CaNbTe2I,51.3006,44.619,-6.6816
NaZrMo2,39.3643,34.9332,-4.4311
Y2MnTeC,52.8313,42.9077,-9.9237
Ca2LaW,25.8574,23.3071,-2.5503
NaTc2Os,63.7411,57.6027,-6.1384
NaLiInNi,13.9874,13.1328,-0.8546
ScPd2Pb,26.7987,26.8671,0.0683
YTcNi2F,56.5827,48.3446,-8.2381
YUO4,23.6709,25.8749,2.204
SmThS2N,31.4591,29.6999,-1.7593
AsW2Cl,25.1328,26.1375,1.0047
Ba6Sc2Fe4O15,15.0717,12.8576,-2.2141
Ba6Sc2Fe4O15,21.9881,12.8576,-9.1305
NbV(AsO4)3,10.0099,9.3906,-0.6193
TlSbP2,25.8651,25.8566,-0.0085
Cu3(AgAu)2,25.3693,24.7903,-0.579
ReWCl2,23.355,24.6131,1.2581
CaCoIr2,33.0163,30.8047,-2.2116
VCu3Ni,32.0034,27.0401,-4.9632
ScPdPb3,40.0504,39.167,-0.8834
YBS2N,62.5626,48.9505,-13.6121
YAlPb2,45.6908,42.4672,-3.2236
CoSbAs,20.4959,16.7637,-3.7323
Mn7Cd2Sn3,66.5878,55.7559,-10.8319
CaBiPt,49.2284,40.5049,-8.7235
K3V5S12,50.0053,34.5951,-15.4102
Re2WCl,31.708,35.0313,3.3232
Pu3Si2Sn3Pt,45.7342,40.0586,-5.6756
TlSbP2,25.9287,25.8566,-0.0721
Be2AgSb,20.8953,17.6305,-3.2648
SiAg3Ru,29.1913,22.453,-6.7384
Si2AgRu,22.7722,17.6675,-5.1046
Th6BC2S3,59.7807,53.1137,-6.667
PmPRu,22.6976,21.8588,-0.8388
Cs2Cu2Rh,22.9546,21.0356,-1.919
BeAgSb2,31.3654,24.9551,-6.4103
La5Tb6Pr,34.4257,27.8097,-6.6161
Zr3(TlCu)2,58.4721,50.4899,-7.9822
CuAsPS2,34.7301,25.5163,-9.2137
InPb2,41.7415,43.9136,2.1721
SbWCl2,23.4038,17.9326,-5.4712
Na6Au,27.7819,23.9652,-3.8168
Cs2NaCa,18.8252,18.6032,-0.222
K12RbNa6,15.4923,12.7853,-2.707
CeNi2Ge,12.2314,12.134,-0.0975
PmScP,39.683,34.457,-5.226
FePb2W,40.454,39.9619,-0.4921
Cs6Na,24.341,24.0851,-0.2559
WCl3,7.9276,9.8907,1.9631
HfTiCu3,28.2006,22.4788,-5.7218
Tm(Zn2Pt)2,29.9249,23.2253,-6.6996
BaP2PdO6,14.0746,12.787,-1.2876
La2NdHg3,17.6138,13.5646,-4.0492
ZrRh2Pb,55.3486,46.2451,-9.1035
Na3I2Br,20.5574,18.6437,-1.9137
Rb2Na2Te,16.6838,13.767,-2.9167
SiAgRh,32.2921,24.6315,-7.6606
Mn2TlRu,66.803,58.4653,-8.3377
Sm5Ni2,14.1853,17.3007,3.1153
ThGeS,11.1945,14.4306,3.2361
Th6Ge2CS3,52.5839,48.9863,-3.5976
TaMoP,29.5937,27.7387,-1.855
Rb4TiI5,11.925,12.2125,0.2875
VSn2Ge,40.3046,36.3299,-3.9747
Sc4N3,1.5692,6.5959,5.0267
PmAgSb,33.026,29.5843,-3.4417
ZrCu2,31.6164,29.4746,-2.1418
TaMoP,29.5135,27.7387,-1.7749
ZrOs2Ru,49.6006,48.9706,-0.6301
LiLaMo2,15.3928,15.9646,0.5718
CoSb3As,34.9056,26.3794,-8.5263
Ti2(GaCu)3,9.1062,8.4015,-0.7048
Ta4MoP,33.8412,34.1072,0.266
LaTb2Pr,25.0172,23.427,-1.5902
RbSrI3,15.2963,16.185,0.8887
Co3SbAs,23.8716,18.0498,-5.8219
GaAg3Sb,29.9177,24.3201,-5.5976
Ti2(IrPt)3,50.3562,41.3733,-8.9829
ScVS2Cl,63.3617,49.5392,-13.8224
RbGa2Te,12.3452,13.8695,1.5243
Ba2CdGe2O7,7.1741,6.4616,-0.7125
Pm2ErGe2,13.2445,17.4574,4.213
Rb3Y(US3)2,39.9674,33.1566,-6.8108
SrPrSm2,14.8666,16.7417,1.8751
NaAcLa,47.0428,40.9693,-6.0735
Sc(FeP)3,30.265,24.5222,-5.7428
TiNb3Ga,88.4441,73.2029,-15.2412
Zn4N3,21.3056,18.5895,-2.7161
PIr2,39.5037,37.5571,-1.9466
ThTiO4,-0.0,3.303,3.303
PmTl2SnS4,45.9066,38.6016,-7.305
NaAgPtN2,31.1083,24.7051,-6.4032
PIr,29.0018,27.1968,-1.805
U2Si2Ni2C,33.8458,31.7819,-2.0639
SrPbSeI2,27.8609,27.2054,-0.6555
Zr4GaBi2,73.0754,61.8489,-11.2265
Rb2YUS6,35.5747,27.0281,-8.5467
Pb3SeI,46.5351,44.8344,-1.7007
Nd6YHg2,21.7977,22.4003,0.6026
Ba(InIr)2,19.9098,23.2439,3.3341
TiGeRh3,24.579,17.9528,-6.6262
SrMg2TcH8,10.9042,9.7415,-1.1627
CeB2PbO6,6.826,7.7329,0.9069
RhPbF6,17.8336,15.7666,-2.067
ZnOF4,12.8434,8.5042,-4.3392
RbYUS4,36.3261,28.8532,-7.4729
Cd2Pt3Au2,57.4573,45.4901,-11.9672
PIr,0.0,27.1968,27.1968
Rb2SrI,9.4662,9.8963,0.4301
Th4BiOs,51.9644,54.7252,2.7608
Pm2PrGe2,6.5075,10.7308,4.2234
ThScS,54.8232,53.1276,-1.6955
Pr3BSe6,20.5722,16.7875,-3.7847
CsNa2Ca,19.7543,17.6712,-2.0832
BaSrCr2,17.3521,15.0517,-2.3003
SrBe2Br,11.4225,8.8374,-2.5851
BaLiCr2,15.1196,12.3172,-2.8024
Be2IrBr,14.3529,16.6524,2.2995
Pu(ReGe)2,45.7394,42.2666,-3.4728
CdRuBr2,19.7333,17.9637,-1.7697
BaHf3W,96.619,71.515,-25.1041
CsSrCa,16.7262,15.4049,-1.3213
PaV,98.3034,87.6848,-10.6186
CdRuBr2,20.1032,17.9637,-2.1395
ScSCl2F,28.459,23.555,-4.9041
TlNi,17.5992,24.1314,6.5321
Ba(SrZn)2,6.7426,8.3932,1.6506
ZrTl2VPb,77.2077,67.2797,-9.928
BeInBr2,10.8984,11.953,1.0546
RhCSe2,52.8526,39.5993,-13.2534
CdRuBr,22.908,21.2849,-1.623
SrTaOs,42.1386,37.7217,-4.4168
Nd2GeRh,20.004,19.7483,-0.2557
YbSnOs,26.5232,29.5073,2.984
Ta2InOs,33.707,38.2757,4.5687
Ta2(TiMn)3,48.1989,42.8984,-5.3006
Ta2InOs,33.8394,38.2757,4.4364
Ca2RuW,21.3799,21.75,0.37
Sr2TaOs,35.7917,31.7071,-4.0846
Pm2TmAlC,28.4577,26.5584,-1.8993
Cr2SeI2,22.1057,20.7582,-1.3475
Tb2Ce2Tl3,36.2654,38.3845,2.1191
Tb3PtN,32.9967,31.1058,-1.8908
NaCuHg2F6,7.0404,6.2621,-0.7783
TaIn2Os,29.9766,32.911,2.9344
K2YBe,13.9036,10.5151,-3.3885
Hf2Ge2Ru,38.6484,27.7146,-10.9338
NaSi3Os,22.6335,17.7825,-4.851
PrSmTh2,38.1702,40.9503,2.7801
Th4OsPt,57.0346,55.2139,-1.8207
Zr4SiPt,73.8361,55.5177,-18.3184
SrBrCl,18.6808,21.0286,2.3478
SmSn2Pb,29.4291,31.1947,1.7656
CsTh2Te5Au,40.2019,40.829,0.6271
Sc2TiRe2,45.0112,36.535,-8.4762
Na2CaCoF6,7.4815,7.13,-0.3514
Ce2Tm3Th2,39.181,42.0555,2.8744
Ge2RhSe2,27.9249,22.6191,-5.3059
AuBr2Cl,17.0302,18.9778,1.9476
Ba4TePt,22.0928,17.6343,-4.4585
SiAsBr2Cl,19.726,17.0407,-2.6854
ThSc3S,34.7154,34.0594,-0.656
TaIn2Os,29.9498,32.911,2.9612
MgAl2TlH6,6.9927,6.4175,-0.5752
SrTa2Os,40.9017,38.8123,-2.0894
VP2OsS,48.3404,43.1359,-5.2046
Th2Ge2Se,32.4522,35.4677,3.0155
TaIn2Os,24.0868,32.911,8.8242
Ce3(TmTh)2,38.3732,41.227,2.8539
Sm2Ge2Bi,23.9113,26.0317,2.1203
Ta3SnI,32.9411,34.7568,1.8157
ScCr2Ga,16.0371,13.8386,-2.1985
ScBeW,0.1776,3.5663,3.3887
Tl6SeS3,48.8297,43.5051,-5.3246
Ta2InOs,33.9203,38.2757,4.3554
NbAgB2,39.0388,34.1149,-4.9239
Cs3HfSb,53.4113,42.4797,-10.9316
ScBe2W,19.9942,17.5845,-2.4097
Mg(ZnPd3)2,9.2584,11.8967,2.6383
ZrPBrCl2,26.2413,21.728,-4.5132
PmPrErSc,15.1938,17.0133,1.8195
Al2TcPd2,22.2603,21.215,-1.0453
HfSc2RhO,90.1838,72.9006,-17.2831
Sr2ZrO,34.0375,28.6038,-5.4337
Ba2SrGe2,6.1365,7.9121,1.7756
Ce2Tm2Th3,44.2266,47.1938,2.9672
Ce3(TlPb)2,40.0195,41.7186,1.6991
Ba4PPt,21.2038,15.3402,-5.8636
La8Ce,43.7276,28.248,-15.4796
ScBe2W,19.6549,17.5845,-2.0704
Hf3CdIr,98.9707,74.0255,-24.9452
Rb4PBr,5.3112,2.7128,-2.5984
Tm3Pt2Au3,50.5708,44.5647,-6.0061
V3Pd2Rh3,70.8524,54.8439,-16.0085
Pa(TaGe)2,31.5258,35.0862,3.5604
PrTh,30.7045,36.1312,5.4267
Sc2GaAgS,28.5514,25.8891,-2.6623
Tb5Pr2Y5,16.5814,18.2508,1.6694
Pr5Sm2Y5,9.2278,10.27,1.0422
ThBrCl,9.9113,17.8137,7.9024
NaSr2BeN2,18.7212,16.0424,-2.6788
Cs2Cd2Ni,18.9312,18.7257,-0.2055
CeSb,34.0353,31.9139,-2.1213
Y2InRhF,25.5445,21.4312,-4.1133
Sr3HfI,41.8966,33.3731,-8.5235
Pr8Dy2Y3,6.5299,6.8385,0.3086
Dy2CuSi,19.6913,20.0897,0.3984
V3Re2Mo3,56.9339,49.3158,-7.6181
Sc2BeW,18.5591,18.5227,-0.0364
Sc4BiPbS,24.9742,25.3009,0.3268
Zr4GaP,64.3815,50.0814,-14.3001
AlInBr,11.7919,13.3884,1.5965
Pm4Te2PPt,33.1805,30.8687,-2.3119
TiPPb3,34.1544,34.8944,0.7401
K2BaBrCl,8.1878,7.6336,-0.5542
Ac3Fe5S12,24.3723,17.0672,-7.3051
AsPBr2Cl,15.5462,13.1948,-2.3514
Ta4AlNi,16.134,21.2848,5.1509
ZrTiSe3,43.472,33.3409,-10.1311
RbOs2I,29.4245,30.2914,0.8669