Formula,E_hull_DFT (eV/atom),E_hull_ML (eV/atom),Delta (ML - DFT)
CoIr4,27.9412,33.2366,5.2953
CaPrSe2,37.9553,31.1514,-6.8038
AlZn2Re,25.7349,19.9433,-5.7917
HfSiPt,73.7676,59.1185,-14.6491
AlZnRe2,33.8149,30.577,-3.2378
CaLaSe2,51.9104,41.1867,-10.7237
SrCaSe2,43.5869,35.6602,-7.9267
CoNiPCl2,21.4753,16.5814,-4.8939
GaRe2P,35.5939,32.9114,-2.6825
Sr4CaAc3Te8,35.6627,34.9064,-0.7563
Tl2ZnOs,38.6047,40.1087,1.504
PuThNiAg,43.9229,45.0449,1.122
CaLa3(PrTe2)4,28.928,25.2208,-3.7072
Y3TaCo,47.7137,39.2312,-8.4825
NaNd2FeO5,6.837,7.0437,0.2067
In3GaRh3,30.3473,25.0685,-5.2788
Cd2InBi,26.2009,27.6103,1.4094
Ca2Ac2Pt,45.2739,41.0974,-4.1765
Mn2PbSe2,63.7681,51.8569,-11.9112
LuThRu4,27.0469,30.4419,3.395
SiTc3Pd,64.648,52.6701,-11.978
Zr2AuCl,61.6602,54.8395,-6.8207
Pd3Pb,26.2216,28.4486,2.227
TaGaRuRh2,58.2902,44.0568,-14.2334
AcTlPt,63.043,57.4982,-5.5448
CrNi2OsPb,32.621,32.1207,-0.5004
Ac2ThSi3Pt4,58.7764,47.4919,-11.2844
ReAg2Pt,48.5513,40.1809,-8.3704
TaInBiRu2,30.7833,32.3768,1.5935
TmSc2Au,21.6651,24.5211,2.856
EuYHoAl,33.4919,30.2519,-3.24
Ba2InAg4Ge3,17.0166,15.0119,-2.0047
LiRe2Tc,43.5666,42.695,-0.8716
CaAcEu2,31.5683,33.3801,1.8118
SiSbPt3,65.6845,47.5779,-18.1066
NdPuAgIr,42.6001,43.7591,1.1591
K2TcICl6,15.4697,13.6396,-1.8301
CaAcEu2,31.6739,33.3801,1.7062
CaAcEu2,31.537,33.3801,1.8431
Re2AsOs,33.1488,37.7839,4.6351
ScNiRh3,33.1856,24.4465,-8.7391
ReAs2Os,26.1783,28.9184,2.7401
TcTe2Cl,45.9682,40.2806,-5.6876
Cs12Ag3O5,10.447,10.8436,0.3966
YLuCoNi,57.4183,52.3383,-5.08
ReAsOs,31.2795,36.803,5.5235
Re2AsW,33.1879,37.0192,3.8312
Y2TaPbBr,46.2733,40.146,-6.1273
Re2AsW,33.3888,37.0192,3.6304
Ta5OsRu4,28.7104,33.5574,4.8471
Ba2NdSn3Pd4,18.5845,16.5989,-1.9856
ReAsW,30.9561,35.4715,4.5154
Ba3GaSn3,7.2157,8.6478,1.432
Ga(SnAu)3,26.6105,27.6915,1.0811
Na2In2Ga,17.1305,16.3036,-0.8269
TaCuPt2,56.2763,45.2896,-10.9867
Te2PtPbI,49.9334,43.7189,-6.2145
Cr3PdW,18.299,17.9202,-0.3788
SrMnTc2Pb,71.1731,60.663,-10.5101
Cr2PdRh2,19.0109,15.8455,-3.1654
CaTbCeTm,22.0394,24.6688,2.6294
Li5Si4,16.2378,13.0746,-3.1632
CeTmBi,30.8173,34.6816,3.8643
GdTmRh,35.7621,33.4751,-2.287
Ta2OsRu,33.5185,37.9186,4.4
Np(MnSi)3,51.7665,41.5537,-10.2127
YZr2Ru,53.0439,46.5408,-6.5031
EuPb,39.8939,42.0693,2.1754
LaY2Pt,41.8182,33.7364,-8.0818
CaSnSb2,25.9385,23.0784,-2.8601
NaPrPAu,16.9868,17.9866,0.9997
Ti10O13,0.0264,1.9109,1.8845
TaOs2Ru,34.2756,38.8257,4.5502
LiY3Co,25.0222,22.087,-2.9352
Tc2SbTe,68.3895,58.3928,-9.9967
Mn(CrFe)2,32.9503,25.2315,-7.7188
Cs3NaI,23.5315,22.8276,-0.7039
Ta2OsRu,32.7439,37.9186,5.1747
ScCu2Rh,26.86,21.8258,-5.0342
Nb2TeC,87.5833,71.5509,-16.0325
TlCu2Pt,38.5618,33.3403,-5.2215
Ce3GaRu3,11.5165,14.5848,3.0683
Tl2CuPt,49.7056,44.0712,-5.6344
YMgBiAu,30.0942,31.1461,1.052
SrAc2Eu,42.7751,43.9241,1.149
NbTl(IO4)2,31.2599,26.8061,-4.4538
Li8Pt,10.2163,7.7374,-2.479
SrAc2Zn3Pt4,51.6122,42.3332,-9.279
Ba2TlCd3Ge4,14.2563,15.2351,0.9788
SrTcSb3,48.2037,40.5019,-7.7019
CdSiRu2,23.2827,19.2294,-4.0533
CdSiRu2,23.1398,19.2294,-3.9104
Cd2SiRu,20.9523,18.4361,-2.5162
Er2TlGe2,20.2632,23.577,3.3138
GeRhO,13.0897,10.7008,-2.3889
Ca3B2SbPd9,14.542,14.741,0.1991
Zn(CdPt)2,41.2987,33.2814,-8.0172
BaSi2Ru3,20.6857,15.7179,-4.9678
HfNbTe3,82.8892,65.6866,-17.2026
Li8Ta,4.8734,5.451,0.5776
SrLiP,12.0971,12.5795,0.4824
Cs2NaI,23.3978,22.583,-0.8148
LiAcSi2Pt5,61.8699,46.4819,-15.388
CrRe2Au,34.4238,37.0667,2.6429
AcIn2TeO8,16.6902,16.5026,-0.1876
TlCdBi,41.5603,42.8164,1.2562
AgTe2PtI,46.7013,38.5781,-8.1232
Hf2NiAu,84.8931,64.8798,-20.0133
NiSbPd2,21.1757,19.9739,-1.2018
SrSiCl6,10.7846,9.4881,-1.2964
Cs2(Tl3Cd)3,38.3449,39.1393,0.7944
Ac2(CdHg3)3,11.674,12.4726,0.7986
SbIrCl2,24.6397,25.0088,0.3691
Cs2(CdHg3)3,6.6123,7.0461,0.4338
Ac3Cd9Hg2,25.829,26.6657,0.8367
Sr2CrSb,22.0011,18.9647,-3.0364
Ba3Cd9Hg2,12.0014,12.6701,0.6687
NdTh2Re,49.4158,53.5637,4.1479
Ac2(Cd3Hg)3,19.8292,20.9789,1.1497
Ba3Cd9Pb2,19.5642,20.3092,0.745
Cs2(Cd3Au)3,24.328,25.2256,0.8975
Ca2InW,17.727,19.9865,2.2595
Nd3CuAg3,24.7378,23.1952,-1.5426
Ce2ZnGe2,9.5241,12.8412,3.3171
SmPb,38.403,42.0452,3.6422
Th3CuAu3,49.0119,51.3075,2.2957
Y2SnIr,26.6969,26.4656,-0.2313
NbTeAuI,59.2498,52.8756,-6.3742
GeW2Cl,17.0173,22.2321,5.2148
NbGaTe3,55.3672,47.361,-8.0063
YCo2Si,29.0078,24.6212,-4.3866
La2SiRhBr,35.5186,25.6504,-9.8682
BeZnRe2,33.4587,28.592,-4.8667
Be2InP,6.9697,7.5696,0.5999
Ba2SrCa,6.72,6.2028,-0.5172
CdFePb2,33.9985,33.4211,-0.5775
SrCaHg2,4.0655,4.0561,-0.0094
Er(TmBi)5,40.8446,42.2666,1.422
NdScPdRh,27.5532,24.1587,-3.3945
YCoSi2,10.2204,7.4951,-2.7254
CaTb2Ho,17.9118,21.2562,3.3445
La2Ho2Zn,33.3973,29.7472,-3.6501
Ba2Sn4PtRh3,31.3479,25.188,-6.1599
CrCdRe3,54.4661,47.4939,-6.9721
CaBeCu3,12.7126,9.878,-2.8345
Nd2Th2Zn,37.6971,40.7699,3.0728
CuTc2Au,60.212,53.8089,-6.4031
TlTePtI2,45.6087,39.9552,-5.6535
CaNdTe2,22.3035,24.4666,2.1632
Ac3In3Cu,32.8905,35.5469,2.6564
Nd3CuI3,7.9351,12.3072,4.3721
BeZn2Re,30.9584,20.939,-10.0194
Al(IrO3)2,0.0,0.5661,0.5661
La3CuI3,19.0634,16.8293,-2.234
CaPrTe2,15.69,17.088,1.398
Sr2Ca7,8.462,7.8797,-0.5823
Al(PO3)2,10.742,8.3411,-2.4009
CaPmTe2,22.3535,24.4957,2.1422
Ac2Ni3P4Pt,29.7596,26.6319,-3.1277
UGaNi,27.5202,19.4269,-8.0933
BeZnRe2,33.229,28.592,-4.6371
Ac2TbSb3Pt4,63.8479,52.1796,-11.6683
LaPm,23.7551,29.3952,5.6402
Tb(CdH4)2,6.1371,7.6417,1.5046
LaPb,36.7663,35.5853,-1.181
CaSm2Y,17.9399,17.9379,-0.002
Ti4Pd,0.0119,4.0946,4.0827
ZnTcSe,49.5265,41.5383,-7.9882
VNi2RhO6,19.6309,15.7012,-3.9298
Sm(DyS2)2,22.6541,18.6389,-4.0152
In3CuPd3,16.7505,18.5379,1.7874
TbCd(H3Pt2)2,33.456,25.1267,-8.3293
LiEr3,22.346,24.2707,1.9247
LiI,4.6266,6.9076,2.281
NpMn2V,99.712,83.6513,-16.0607
LiSi8,15.9862,10.182,-5.8041
NaAgSbPt,47.4016,37.4644,-9.9372
Te3PtI,48.1165,40.9299,-7.1867
Sr2AcPt2,48.4705,40.0028,-8.4677
ZrNiBr,38.8324,35.4694,-3.3631
Th3Tc,64.3301,63.7731,-0.5569
CaHf3I,93.6962,66.558,-27.1382
Sr(AcPt)2,58.0705,50.0672,-8.0033
Ca2LaIr,33.4741,26.3959,-7.0782
Co2Rh7,39.5885,29.164,-10.4245
Tb2ErTc,44.1308,42.4325,-1.6983
LaSiRh2,40.6774,29.5814,-11.096
Y3RuAu2,27.7219,27.6078,-0.1141
HfCrFe2Sb,57.6659,41.7135,-15.9524
TcPd3,36.5473,35.2422,-1.3051
PaNi2Sn,30.8505,29.1969,-1.6536
GdGaNi4,12.5913,12.714,0.1227
LiY2P,21.2214,17.4067,-3.8147
La2Ce2Ge4Pd,22.5588,20.5031,-2.0557
Pr8GaRu3Cl4,29.1458,25.6338,-3.512
PaTe3,42.2097,41.8146,-0.395
NaMgAs,11.6419,10.5875,-1.0544
YZr5Ru6,51.1159,44.6476,-6.4683
GdEr2Tl,34.555,37.1505,2.5955
LiZr2P,55.0851,47.5105,-7.5747
CsTl4In2Sn,35.9694,36.6566,0.6873
Gd2GaNi,19.1393,20.5216,1.3823
Pr2P3(HPt2)2,31.9422,23.2424,-8.6998
Tb4HfCo19As12,22.2793,17.0625,-5.2168
CuTc2Os,58.72,52.8467,-5.8734
TlSi2NiRh,27.5099,22.6768,-4.8331
Tl(CuGe)2,13.1249,15.554,2.4291
Pm2ZnRh2,30.3731,26.0797,-4.2934
AcEuTm2,38.6382,40.2032,1.565
Pm3ErBi4,39.3727,41.4701,2.0974
Cu4PH5,6.0572,4.4238,-1.6334
ReNiPb,59.7125,46.0595,-13.653
Nd3CuSn3,27.6295,28.2393,0.6099
InCoSn2Sb,23.4723,22.2639,-1.2084
CuTc2Os,58.735,52.8467,-5.8883
InSi2As,25.5842,21.8832,-3.701
InSi2As,25.5109,21.8832,-3.6277
CsInGe2Mo,17.7701,18.0542,0.2841
KAgW2,58.9117,48.6715,-10.2402
TaTePtI2,43.7722,37.9795,-5.7927
TbGaPb,28.8122,31.187,2.3748
Re2TcAg,43.6071,43.7534,0.1462
ZnReSi,36.0727,26.4753,-9.5973
Tb2Ga4AgAu3,25.4603,26.0705,0.6102
Tb2DyS4,35.4957,30.5332,-4.9625
Re2Tc2Ag,50.2888,47.9258,-2.363
TbCdH6Ru,6.7932,7.5163,0.7231
ReTcAg2,49.4894,43.6897,-5.7997
IrOsAu2,45.2229,48.4104,3.1875
BaCuOs2,17.7921,21.0081,3.2161
YZrAu2,45.7969,46.1521,0.3552
Y2ZrAu,43.1293,42.7032,-0.4261
Sr3CuPt3,39.8533,32.8795,-6.9737
Tm3CuAu3,33.6529,35.6257,1.9727
AlAsCl,17.6552,18.3721,0.7169
NpIrOs,40.8402,45.5737,4.7335
BaCoRe,24.6729,21.0819,-3.5909
Mg2Ru,0.0,4.4957,4.4957
ReOsRh3,47.7731,39.4971,-8.276
LiPtAu2,45.9143,40.9712,-4.943
Cs2Ba2PaO6,9.1168,10.0444,0.9275
PrSmBiAu,31.2916,32.4851,1.1935
YZrAu2,51.1621,46.1521,-5.01
AlSb2(PbAu2)3,44.4586,43.8978,-0.5608
YZr2Au,64.2683,58.4938,-5.7745
PuPd7Pt2,37.7548,33.864,-3.8908
Zr2ScCrGe,54.2148,43.559,-10.6558
YHoSiNi,51.7286,46.6092,-5.1194
NbTePdI2,50.2343,43.2894,-6.9449
TbSI,34.0106,30.4726,-3.538
TlCuTc2,61.3872,54.5361,-6.851
CoSbTe2P,34.7771,29.0044,-5.7727
Al2ReTc,37.119,33.319,-3.8
Ca2LaRe,26.1074,24.3031,-1.8043
TbCeGdSc,21.6209,24.4224,2.8015
Ac2Sn3GePt4,54.9725,45.6633,-9.3092
Ca3Tl2BRh3,35.3205,31.8116,-3.5089
AlReTc2,58.2222,51.3626,-6.8596
AlRe2Tc,45.048,44.4972,-0.5509
AlReTc2,58.5994,51.3626,-7.2368
La8Pt3BrCl4,43.1831,30.6908,-12.4923
AlReTc2,58.8663,51.3626,-7.5036
AcGePdPt,38.5865,35.1112,-3.4753
Al2GaRe,8.8009,14.0222,5.2212
Hf(SiRu)2,37.3681,27.1115,-10.2566
PmYTmPu,35.5316,38.2313,2.6997
AcP2,17.6783,21.0176,3.3393
SrInPd2,12.312,15.339,3.0271
Al2TlRe,24.6081,28.165,3.5569
Li3Y2TiS6,35.3608,25.6587,-9.7022
AlTl3Re,40.5116,41.3664,0.8548
AlTlRe,31.9402,34.3472,2.407
YNbO2,56.1358,47.4227,-8.713
OsAuBr2,28.8121,30.4746,1.6625
Ba2ScCdO5,23.533,21.2878,-2.2452
Sr2ScCoO5,23.8786,22.2561,-1.6225
Li2Pm3(AgPb2)2,31.3541,31.4755,0.1213
ZnInTc,40.3675,36.0622,-4.3053
Na2Cr4Pb,21.2324,20.5579,-0.6745
Al2TlRe,24.8256,28.165,3.3395
NaNiI,18.1582,15.8468,-2.3114
Tl2ReO6,17.2936,18.7982,1.5047
Na2CrPb,28.3161,27.812,-0.5041
LiYNp2S5,39.6023,32.3477,-7.2546
TaMn2Se,71.0478,59.7417,-11.3062
Y6HoEr3Tm2,21.7592,23.1803,1.4211
TbAlGaAg,17.0026,17.5051,0.5026
Be2ReCl,12.2102,13.6987,1.4885
Ga2BiP,22.9098,22.7466,-0.1632
TaMn2Se,71.2259,59.7417,-11.4843
ThSbAu2,50.7987,51.6612,0.8625
DyErScAl,16.8464,19.1368,2.2904
NbTePt3,91.4453,69.0507,-22.3946
CaTlSeClO,38.0474,35.6795,-2.368
TaIn2Sb,26.1563,30.9913,4.835
AcNiGePt3,54.5057,42.5027,-12.0029
Ac2Ni3Ge4Pt,32.0977,26.9639,-5.1338
Mg4Zn2Cu3,11.8477,8.7307,-3.117
Ba2ScPdO5,28.6344,25.0818,-3.5526
HfSiRu,34.2747,23.4963,-10.7784
HfSiRu,35.2559,23.4963,-11.7596
Y2Ho2ErTm4,26.3505,28.4064,2.056
Te2IrCl,33.2824,32.8633,-0.419
Ac3GaGe2Pt9,67.6974,52.6686,-15.0289
SrSiBr2,23.3734,17.7293,-5.644
Tl3B2Pd9,22.1612,23.1874,1.0262
KYCl2,42.8062,40.5497,-2.2565
Nb2TeOsI,79.1873,66.7908,-12.3965
PtAuBr2,41.448,35.2884,-6.1596
Al(OsC)2,35.1157,30.1925,-4.9231
NiAs2,17.2762,13.3646,-3.9116
Pt2AuBr,60.7314,48.0981,-12.6333
Tl3Pd(SeO4)2,22.9788,20.8916,-2.0873
PbI,35.3007,31.7668,-3.534
YHfRh2,63.0519,47.1867,-15.8652
ReAgHg2,18.5646,18.0364,-0.5282
TiGaP2S,23.4125,21.7789,-1.6336
AcAlPt2,54.4623,50.4572,-4.0052
TbSc2(GaCu)2,27.0986,23.4755,-3.6231
Tb2AlGa4Au3,22.5782,24.0139,1.4357
AcSiGePt3,52.4856,41.5209,-10.9647
Ca2YCo,27.286,23.5768,-3.7092
NbTePdI2,49.9786,43.2894,-6.6892
ZrNiBr,39.0622,35.4694,-3.5928
SrIn2Pd5,17.2716,18.9809,1.7094
YHo2AlC,38.5191,31.4095,-7.1096
Ac3InGe2Pt9,68.48,53.4631,-15.0169
Cs2PAuI,25.3686,24.6678,-0.7008
In3HgPb3,28.3053,29.4189,1.1136
TlIr2Ru,43.5374,42.4997,-1.0377
Y2Bi4P,43.6082,41.2469,-2.3613
K(TlAs)3,24.4842,25.5906,1.1064
HfFe2Pb,47.6238,37.3141,-10.3097
PuNiSb2,39.6975,35.0459,-4.6516
Tl2IrRu,45.3636,43.2643,-2.0993
HfTlIr2,70.139,62.4374,-7.7016
BeAlAs2,22.4021,16.7983,-5.6038
Tl2CdAg,36.2366,35.9471,-0.2894
LuAgBi2,39.0744,39.9401,0.8657
BaRuSe,21.5708,20.7974,-0.7734
TlIr2Ru,43.1756,42.4997,-0.6759
Ba2SrScO5,21.4728,20.2029,-1.27
BaReAg2,38.2912,30.3456,-7.9456
BaRe2Ag,40.5258,34.587,-5.9388
K3Hg3Au,10.1498,10.2973,0.1475
BaReAg3,36.9398,28.7307,-8.2091
NdSmYHo2,19.7603,22.298,2.5377
Cs2SiSBr6,18.1488,15.9563,-2.1925
LaAl4Mo,16.351,13.7468,-2.6041
HfTeIr,68.1411,40.5717,-27.5695
CuSb2Ru,28.9037,26.93,-1.9736
Tb2Zn(GaNi4)3,8.7591,10.1378,1.3787
K2BaBr2,8.023,7.0832,-0.9398
TbTm2(TlTe2)3,40.0555,39.8251,-0.2304
BeAlAs2,22.0824,16.7983,-5.2841
AlTcP,47.1735,40.0074,-7.1662
Li3ErSe3,19.1202,15.7529,-3.3673
Zn(PdAu)2,27.3328,29.304,1.9712
Ac3Ge2Pt6Au,65.5488,53.2526,-12.2963
Y2TiGa,28.0363,23.4823,-4.554
SrCa2La,20.5981,17.2034,-3.3947
AlTcP,54.043,40.0074,-14.0356
Ac2ZnSn2,30.9364,34.3074,3.371
La4Os2N,53.2815,42.5021,-10.7794
Y6MgCo,22.1885,19.7646,-2.4239
CuTe2Ru,27.6959,26.9638,-0.7321
BaBe2Mo,9.9411,7.2515,-2.6896
CaErIr2,37.2618,35.3457,-1.9161
BaBeMo2,13.4935,11.268,-2.2256
Ba2BeMo,8.6853,7.1799,-1.5054
Ac2Pa(PtO4)3,24.6792,22.693,-1.9862
AlIn3Re,21.9092,22.9442,1.035
AlInRe2,26.0951,29.4149,3.3199
LiMnCr,37.2527,30.6293,-6.6234
CaCrRu,24.0572,20.9819,-3.0753
AcNd(ThPt2)2,71.2762,60.0726,-11.2035
Y2HoTmP4,24.8651,21.1291,-3.7361
Ca3ZnN3,14.7341,12.6731,-2.0609
Y2(BeAu3)3,29.7059,29.7896,0.0837
Ca(AcPt)3,60.123,50.2744,-9.8486
Al4MoPb,16.7974,16.5227,-0.2747
ZrCr2Cd,34.2608,30.4883,-3.7725
Ho2(BeAu3)3,30.007,32.113,2.106
Nd2(BeAu3)3,29.534,31.5846,2.0506
Ac8SnIr3Cl4,41.5899,42.7138,1.1238
AcSmCu,32.2476,34.8358,2.5882
CrRe3Tc,46.733,44.3164,-2.4167
NdYHo2N4,24.4399,24.0979,-0.342
LiMoRh,21.6545,19.1165,-2.538
Np(ZnIr)2,40.937,36.9121,-4.0249
CdNi8,12.9192,10.9544,-1.9648
TaTlSe2,46.2138,41.7063,-4.5075
Pm2SbP,23.6413,24.5416,0.9003
LiAcInPt,44.2131,38.8772,-5.3359
SrNb3Te,97.1515,78.4515,-18.7
CaGd2In,20.7176,23.1037,2.3861
CuRe3W,35.4824,37.8753,2.3928
Nb3SnC2,84.7634,68.6395,-16.124
CaPm2(NdSm)2,22.0371,23.438,1.4009
Y3Er12Cd5,14.9997,17.1186,2.1189
GdErAu,34.772,37.6308,2.8588
Ce3GdMn,40.8376,37.608,-3.2297
Tb4CePr10,5.8727,6.9872,1.1145
CaZrCu3,26.8912,23.0004,-3.8909
CuReW2,22.2321,31.0805,8.8484
NpBe5Au7,30.753,32.2563,1.5033
CaCd7Rh5,29.4167,24.621,-4.7957
Sr2YMgAu6,32.9661,33.3475,0.3814
Zr2InAg2,55.6816,47.7946,-7.887
Ca2MnRe,38.1717,34.9718,-3.1999
Zr2Hg2Au,48.4965,43.3325,-5.164
CuRe2W,31.5792,38.0318,6.4526
Ca2MnRh,39.7271,32.1029,-7.6242
TaAlIn3,20.6769,22.0892,1.4123
Tm2TcMo3,33.2498,33.4842,0.2344
Tm2Mo3Os,31.4413,28.391,-3.0503
Ta2AlIn,24.1256,28.029,3.9035
Nd2YHo4,20.7775,22.662,1.8844
Ta2AlIn,24.3807,28.029,3.6484
TaZnSe2,35.4197,32.1019,-3.3178
SrCaPmLu,21.1393,21.5538,0.4145
Ta3AlIn,28.6756,31.0826,2.407
ReAgMo2,28.8749,28.1678,-0.7071
TaNbTeI2,54.3456,47.5918,-6.7538
CuRuW2,34.9046,29.4201,-5.4844
Ce2Re3Mo,32.908,34.0282,1.1202
ReAgMo2,29.0014,28.1678,-0.8336
Er2Ni12P3Pd,17.0484,15.3169,-1.7315
Er2Cu(Ni4P)3,16.3936,14.8263,-1.5672
Sr2Ag2Rh,24.7788,19.8658,-4.913
AcTh(SiPt2)2,63.8576,50.0868,-13.7708
Re2AgMo,35.2714,34.5464,-0.725
Er2Ni4GeP3,16.7985,15.9176,-0.8809
RbGaNi3,7.7801,8.0539,0.2738
NaSiPS2,34.2265,26.4238,-7.8027
ReAgMo,33.429,31.9439,-1.4851
Fe3Co3Pt,10.6906,5.3157,-5.3749
CaYCo,35.0273,29.8628,-5.1646
PrMnRh2,47.9113,36.8173,-11.094
CeGa2Re,13.6642,17.7829,4.1187
Ce3NiGe3,11.3247,13.2629,1.9382
ReOs2O,40.8846,42.799,1.9144
TlCdCoSb2,34.2627,31.0679,-3.1948
TaBiRu,35.8371,39.9762,4.1391
LaNd2(YHo)2,26.5596,26.4908,-0.0688
PmYAlAg,33.062,27.9715,-5.0905
Ac3VCu2O9,20.8131,20.2675,-0.5456
Nd2Y6Ho3Zr,26.3582,26.2392,-0.119
NaThAg2,38.3518,35.0201,-3.3317
BaBe2Al,14.673,10.7198,-3.9532
Ta2CdSn,22.591,28.8773,6.2863
BeReP4,24.2719,19.5089,-4.763
CoNi,19.3231,13.3139,-6.0092
Hf(ZrTl)2,88.456,74.5089,-13.9472
Na2TaCdSn,26.0706,24.9302,-1.1404
AcCu5Pd7,16.8049,18.5125,1.7076
Y2Ge4Ru3,16.1438,15.028,-1.1158
Nd2NiP2,8.4012,11.9747,3.5735
BeTeSe3,38.3634,31.2314,-7.132
Ba4MnHg,17.1707,14.0694,-3.1013
Sn2OsW,88.3768,75.2071,-13.1698
Nd3Y2HoS6,37.2207,30.244,-6.9767
Nd2BeNi3P4,13.3585,12.5245,-0.834
Cd5InHg7,8.0523,8.6555,0.6032
AcBPt2,47.0545,38.6248,-8.4297
SrHg6,1.427,1.9349,0.5079
Na3(ZnSn)4,16.9415,16.282,-0.6595
BeTe2Se,33.5167,30.0368,-3.4799
NdNi4SnP2,18.9108,16.5518,-2.359
NdYHoAl,32.562,29.7159,-2.8462
BeReP2,32.7296,26.8837,-5.8459
AcTl2(OsO4)3,15.5938,18.7287,3.1349
PuCo4Hg,16.0079,18.1463,2.1384
Sc4TaIr,58.8253,47.4615,-11.3638
Zr2Nb2Tc,114.3774,94.1542,-20.2232
Pm4NiPb2,29.7183,31.2858,1.5676
ZrRuBr3,34.2306,28.9265,-5.3042
Ac4SiPtBr2,47.7763,44.601,-3.1753
ZrRu2Br,40.6929,35.8554,-4.8375
SrZnSb2Te,30.4341,27.2312,-3.2029
InCuNi5,8.4262,10.268,1.8418
Zr2NbIn2,68.7808,59.5418,-9.239
CeDyYHo,23.7803,26.768,2.9877
Tb(NdBi)3,21.4309,25.4693,4.0384
Tl7CdHg5,28.7368,29.0855,0.3486
Tl4SiRu,42.2982,40.4787,-1.8196
Ag(GeMo)2,9.7059,12.6641,2.9582
Sc5Ga4Tc,29.6536,27.2564,-2.3972
Hf2NbSe,119.3839,88.6865,-30.6973
Th3Fe3Sn,23.5608,28.6988,5.138
Hf(ZrSb)2,78.0541,62.1316,-15.9225
BeTcTe,46.1405,40.4785,-5.6619
BeTc3Te,65.134,54.6077,-10.5262
BeTc3Te,66.505,54.6077,-11.8973
Be2TcTe,34.9757,30.6234,-4.3523
Ba2CaAc,15.3439,17.4172,2.0733
ThOsPt2,71.141,60.6944,-10.4466
CaThPdPt,43.7293,40.0563,-3.673
TbTaAl2,17.1667,20.6046,3.4379
UCoRh,41.2395,39.5283,-1.7112
Th3TlFe3,28.3016,33.3528,5.0513
RbScNb2Ga,60.8752,49.0506,-11.8246
CaGeTe2,23.8359,23.7636,-0.0723
Ca2YCo,26.8013,23.5768,-3.2245
Ac2GeIrRh,38.9148,39.6834,0.7685
SmTh2Ag,47.1514,48.4521,1.3007
Na2Zn2Sn3,18.0395,17.3827,-0.6569
Na2ZnSn5,20.0048,19.6431,-0.3617
Ca3YCo,22.696,19.3338,-3.3622
Mn2WSe,71.6739,60.5728,-11.1011
Pr2NiP4Pt3,29.9523,22.3644,-7.5879
Be2MoAs,13.4464,10.3968,-3.0496
CeZn7Fe5,10.2691,7.5552,-2.7139
TbSm2(TmSc)2,21.2596,23.5427,2.283
BeMoAs2,13.3516,12.0653,-1.2863
AcGdInPt,50.1803,45.9862,-4.1941
NaMnAlFe,29.6119,26.4626,-3.1492
Ti2GaPd2,6.3536,9.812,3.4584
BeMo2As,15.5153,15.0034,-0.5119
ZrGa7Fe5,22.106,16.8692,-5.2367
NaBePt2,50.4488,38.1376,-12.3112
ZnMoIr2,34.36,32.4962,-1.8638
Ta3SiSe,35.7018,34.4429,-1.2589
Sr2RuO6,15.3172,14.218,-1.0992
Y(MgTa)2,33.2697,30.4504,-2.8193
Mg2UCo,18.8474,19.3573,0.5099
PrO2,7.3096,4.4527,-2.8569
ZrTeBr4,31.6343,29.1165,-2.5179
Na2ZnSn3,17.4268,16.6066,-0.8201
PmPr(NiP)2,13.4601,13.1843,-0.2757
Cd(GaBr2)2,11.1882,11.6701,0.4818
Ac3Ga3Pt,43.3631,41.1444,-2.2186
VCoP2S,48.6475,38.027,-10.6205
Ho2Tm2Zr,39.2643,39.6638,0.3995
TbScPdRh,27.9128,24.4964,-3.4164
Pr2AlNi4P3,18.0342,14.5616,-3.4727
CrMo2As,13.7332,16.5951,2.8619
NbCdTeI2,49.8352,43.084,-6.7512
Tl2Pb3Cl8,21.4872,22.1994,0.7121
Sm2Ni3P4Pt,21.7856,18.7225,-3.063
CrMoAs2,13.1947,12.8438,-0.3508
Ba3Tl3Pd,20.8886,23.2538,2.3652
Er4ScSb4,34.1542,31.6378,-2.5164
CaY3Co,29.8545,24.1541,-5.7004
Hf2ZrNb2,134.0897,102.1446,-31.9451
Pr2SmZr,28.5814,26.0855,-2.4959
TaSiRh,32.9259,29.2449,-3.681
BaBeCr2,14.7964,12.9293,-1.8671
Ta2InAs4,19.8433,21.0982,1.2549
Tb2YTe,27.0684,28.5916,1.5232
La(YAs2)2,16.6078,16.0367,-0.5712
ScNi2W,11.2067,12.9005,1.6938
Ca2YCo,27.3009,23.5768,-3.7241
BaSc2W,13.3179,15.7438,2.4259
TbHo2(TmSc)2,22.2489,24.4542,2.2053
CaSb2Br,35.5293,30.1528,-5.3765
BaBe2Cr,8.3727,7.9075,-0.4652
Ba2ScW,11.9436,13.9144,1.9708
Ba2LaScRh,21.2625,16.0582,-5.2044
Pm2ErRu,36.8092,35.6557,-1.1535
Sb2PW,85.5101,72.1952,-13.315
BeZnSnO4,32.3662,26.0115,-6.3547
BaScW2,21.3526,24.82,3.4675
TlRuAu2,40.7543,42.8244,2.07
ThGaPb,37.2131,40.742,3.5289
BaPS2,27.966,22.6452,-5.3208