Formula,E_hull_DFT (eV/atom),E_hull_ML (eV/atom),Delta (ML - DFT)
AgPbBr2,31.212,30.0256,-1.1865
SrCa2I6,10.5841,11.9745,1.3904
ZrBiSe2Br,52.623,44.2635,-8.3595
SrSiSe,40.0628,29.378,-10.6848
PmYHgPd,23.621,21.56,-2.061
SrSiTe4,40.3364,34.4111,-5.9254
Mg9In4Pb11,28.3488,29.1337,0.785
Dy11Mg9Ag4,18.5815,18.5983,0.0169
Na2Si2Tc,30.0965,23.125,-6.9715
Y2Si3HgPt4,54.2005,38.7788,-15.4217
Tl2IrW,46.9035,49.2259,2.3224
TaIr2Pb,43.9358,47.9024,3.9666
RePtAu2,56.4047,48.4911,-7.9135
TlAg2PS4,43.1931,36.179,-7.0141
PmPuSb4,45.8815,40.0337,-5.8479
UAgSn,28.3654,31.3751,3.0097
In9Sn4Pb11,35.0288,35.8193,0.7905
La2TbCeBi5,47.2936,44.2922,-3.0014
Nb11Ni4Ir9,81.8207,70.8845,-10.9362
Li3PbAu3,25.2528,26.1232,0.8705
GdYHgRh,31.6334,27.1686,-4.4648
Li7PbAu2,14.8541,15.5673,0.7132
KSnRu2,12.0743,14.544,2.4697
AgAsPBr2,21.4641,17.8256,-3.6385
CuSnSb,54.2961,45.7386,-8.5575
CsRe2Tc,44.4193,44.4456,0.0262
SrSi2Te,32.2015,24.4323,-7.7692
EuTlGaAu,33.309,35.1459,1.8369
SrReSi,38.3104,32.3995,-5.9109
La2BiI,44.285,36.403,-7.882
Tb2Tm6S,32.5214,32.9904,0.4689
Y11Mg9Cu4,18.0496,15.1828,-2.8668
TiRuN3,24.998,22.449,-2.549
Ba4YCr,23.9785,19.8573,-4.1212
Sr2SiTc,45.4752,37.4065,-8.0687
SrSiPb2,44.3241,37.2713,-7.0528
ReTcPd,40.9013,43.4061,2.5047
Pm2Pu3Ir2,69.9896,61.0886,-8.901
YCr2TcHg,53.6868,45.2469,-8.4399
SrSiTc,55.004,44.2906,-10.7134
YTmTcHg,68.9262,61.42,-7.5062
GaCoNF2,49.9241,42.1258,-7.7983
SrSiTc2,65.2664,53.0208,-12.2456
SrSiTe,38.2128,30.2271,-7.9857
Rb2MnGeBr6,17.7103,15.468,-2.2423
Y4HoAg5,23.705,22.257,-1.448
CoReS3,44.1471,34.8702,-9.2769
Ba2ScCd,3.9685,6.1897,2.2212
CoReRh2S,41.5549,33.0231,-8.5319
SrCoSi2Os,26.5237,21.6931,-4.8306
SrTl2Si,40.7198,36.2868,-4.433
Sr2CaSi,24.3535,17.3826,-6.9708
CoRe3S,38.5991,36.867,-1.7321
CeGa3CoCu,16.0504,14.9993,-1.0512
Ga2CoCu,18.6134,16.5235,-2.0899
SrHfSiTe2,61.5053,46.3297,-15.1756
K2ZnOs,19.5119,19.4647,-0.0472
Sr3AlSi,20.8113,18.074,-2.7373
Pr3YHo5,12.8799,15.0233,2.1434
Tm2Rh3S4,47.4364,35.5993,-11.8371
Co2ReAsS,32.1317,25.9961,-6.1356
GaCo2CuW,27.9823,24.8357,-3.1466
Ba(SrSi)2,25.4093,17.2516,-8.1577
SrMnSi2,40.9951,34.4712,-6.5239
TbHPt3,40.5879,27.224,-13.3639
CoAs2SBr,24.8259,19.0819,-5.744
ZrGaCoCu,45.2868,37.2296,-8.0572
PmY2I,18.5956,21.1019,2.5063
CoAs2SeS,42.6631,34.8255,-7.8376
Sc8CuTe3,8.9973,8.5563,-0.441
Sr2MnSiSe,46.9853,35.728,-11.2573
MgSc3N,0.0,0.9656,0.9656
CaSi2Te,24.1118,19.2257,-4.8861
PrGd2In,18.2748,21.0707,2.7959
Zr3SbN,69.9939,54.8067,-15.1872
YHgRu2,20.9465,19.6669,-1.2796
SrTcN3,16.4618,14.3314,-2.1304
Sr3Ac2(ZnPt2)2,48.5754,38.98,-9.5954
TiCdCoNi,38.7779,31.2556,-7.5222
CaAc2HfS6,53.3442,41.8658,-11.4785
Nd5Sn3S,20.3018,21.674,1.3722
Sr2SiSn2,21.4436,18.2704,-3.1733
Cs3Er(NpSe3)2,42.919,39.1792,-3.7398
WI2Br,25.0984,26.0788,0.9804
InTcAgSb2,47.1707,39.1051,-8.0656
SmSnS14,48.013,34.3567,-13.6563
V2SI,84.5905,66.1722,-18.4184
AcSn2GePt2,48.4933,39.6829,-8.8104
ThAl2Co2B,30.2893,24.3184,-5.9708
Ba(CaPb)2,19.4481,21.9235,2.4753
Ba4Ga4GeS12,30.2142,20.513,-9.7012
Na2HfV,77.4643,58.999,-18.4653
TcRuN2,52.2912,47.7418,-4.5494
Rb2Np6Ir4S17,45.4634,37.9485,-7.5149
LaAl2W,23.9995,22.1201,-1.8794
HfRhSeN2,49.1645,36.2235,-12.941
LaAlW2,33.5229,32.2974,-1.2255
Sr(CoSi)2,13.6991,10.3924,-3.3067
AlPBr,27.4734,24.6147,-2.8586
V2CuNi2,48.7939,40.3702,-8.4237
RbMn3Sb,69.9329,55.2298,-14.7031
RbMn2Sb,62.1509,49.4601,-12.6908
U(CoAs)2,19.3731,19.357,-0.0161
CaNi2Pb,23.8667,20.5744,-3.2923
Mn(InTe2)2,43.6681,39.724,-3.9441
NaTbPmAl,19.701,20.8698,1.1688
Y2HgRh2,32.9056,24.1768,-8.7288
BaCa4Ru,6.8089,8.1757,1.3669
Co2CuBO,18.7885,15.3131,-3.4754
PrGd2Zr,38.1596,34.5541,-3.6055
UCoAs2Ru,20.8742,20.7192,-0.155
PmCoBO4,0.0,0.8128,0.8128
ZrAlP,49.3014,40.7088,-8.5926
SiTe2Se,37.326,31.738,-5.588
Sr3SiSn,24.2229,20.0327,-4.1902
YTmHgAu,31.4328,30.004,-1.4287
VI2Cl,40.3811,35.0695,-5.3116
Mg9Sc4In11,13.0473,11.8091,-1.2383
Pm2Tm2Th3,44.2264,48.1821,3.9557
Mg9Sc4Pb11,25.7975,26.7654,0.9679
Si2TeSe,29.9434,25.5789,-4.3646
La2Tb3Tm7,33.2355,31.9351,-1.3004
SiTe2Se,37.1044,31.738,-5.3664
UCoAs,33.7279,33.9705,0.2426
SrGa2Si,22.3287,17.4998,-4.8289
Ir2WF2,27.8635,26.631,-1.2325
Sr2TaSi,34.7708,26.6123,-8.1585
YHgC2,39.279,29.1011,-10.1779
Hf2CoNi,94.1682,68.1427,-26.0256
SrZrSiAg2,48.3967,36.1046,-12.2921
YHg2Sb,23.3352,18.3774,-4.9579
SrTl2SiOs,43.938,39.7984,-4.1396
UTcSb2,63.3038,56.9937,-6.3102
NaPrEuAl,13.1907,13.4236,0.2329
YSn2Pd,56.4482,48.9998,-7.4484
TcNi2Se,38.5984,34.2689,-4.3295
CrInPb2,33.7492,34.7372,0.988
Sr3BeSe,21.8072,17.2738,-4.5334
TcNi2Se,38.4808,34.2689,-4.212
CoPtF2,24.4006,17.5366,-6.864
SrSiGe2,18.4961,14.1008,-4.3953
Sr3SiSn,23.8639,20.0327,-3.8311
Sc2RePb,41.7072,37.3928,-4.3145
Zr2SeBr,63.21,51.5051,-11.7049
Ac2Pm2Tm3,38.8899,41.3116,2.4217
Hf3PSe,97.0851,69.6469,-27.4382
Ce3Co2CuGe6,17.4497,16.8776,-0.572
CeNdCoCu,31.2706,29.0258,-2.2448
Na9Tl11In4,35.7368,34.2679,-1.4689
YHgOs2,34.0518,30.2414,-3.8104
Li3FeP,19.0728,13.7554,-5.3174
CeSmCoCu,31.3293,28.8886,-2.4407
TbPRhN,27.1109,22.0751,-5.0358
Sr2SiTc,45.3279,37.4065,-7.9214
Ac2AlSi3Pt4,56.444,42.5218,-13.9222
Sr2SiTe4,31.3637,27.8845,-3.4792
Cs2Er(AgSe2)2,36.0326,31.0489,-4.9837
CsSmAgO3,7.3359,8.7809,1.445
Pr2Co3CuGe4,12.7243,10.7861,-1.9382
Re2SnI,32.1221,34.4243,2.3022
Ac2Pm3Er2,37.6057,40.6352,3.0294
TiNiOs,13.9001,16.8995,2.9994
SrSi3Ru,28.6566,18.8216,-9.835
BaRe,37.676,33.5615,-4.1145
Sr2SiGe,19.6251,14.9509,-4.6741
Ba3SbOs,17.3468,16.4844,-0.8624
Sr3SiSe,29.3827,22.3381,-7.0446
FePbN3,15.8452,14.6891,-1.1561
YHgOs2,34.2793,30.2414,-4.0379
NiPd,0.0,5.1879,5.1879
ReTeSN2,79.2324,71.1707,-8.0617
NbTlAg2P,52.697,44.8836,-7.8134
NpPS4,50.1581,42.8883,-7.2699
Y3HgOs,25.3411,22.2931,-3.048
CsTeRuO6,17.589,16.0085,-1.5806
PPbS4,43.1485,35.6954,-7.4531
Nb11Ru4Pt9,100.7032,77.2587,-23.4445
Pr6Ag(SnS7)2,36.5366,26.0831,-10.4535
Tb(TlS)3,35.5761,30.0588,-5.5173
Na9Mg4Hg11,9.4555,7.7012,-1.7544
CoIF2,7.3225,8.2589,0.9364
Al3Pt,19.2994,14.385,-4.9144
Cs2CaI6,20.2188,21.6697,1.4509
Nb11Ru9Rh4,86.2681,69.994,-16.2741
Ac2AlPt,54.8478,49.6324,-5.2154
ScPd2W,17.0872,19.3501,2.2629
RbHfB,49.5815,36.4821,-13.0994
Y2HgGe,27.0571,22.5143,-4.5428
K2SrReSi,28.1323,22.8743,-5.258
KPr2MnO5,29.5076,23.5464,-5.9612
Pm3(SmHo)2,25.8745,28.6158,2.7414
HfZrSe2Br,69.7889,52.7464,-17.0425
Li(In2Pb)2,27.1742,27.3837,0.2095
Np4PaS5,61.7514,58.8403,-2.911
YHgGe4,14.4343,13.3146,-1.1198
YZrHg,49.5312,39.6244,-9.9069
CsCa2I,14.3551,15.3058,0.9506
Hf2VGa2Co5,38.8249,30.9689,-7.856
MgAlSi2,15.8867,14.7069,-1.1798
RuBr2N,32.314,29.3811,-2.9329
Cs3CaMo,19.7955,19.9361,0.1406
HfGaCoOs,49.6051,42.7083,-6.8968
TaRh2Au,45.5821,42.8471,-2.7351
Hf3Ga3CoGe2,53.0083,40.4787,-12.5296
HfGaFeCo,49.5117,37.2028,-12.3089
Rb(RhS2)2,46.164,34.0782,-12.0858
Tb2(TmSc)5,19.365,21.0941,1.729
Ac2P(N2F)2,23.033,23.4328,0.3998
Gd3Ga3CoSi2,18.7963,17.3344,-1.4619
Tb3Tm2Sc3,19.5835,21.3119,1.7284
ZrCoHRu2,27.8936,24.8945,-2.9991
Sr12As6N,17.1347,13.4257,-3.709
ZrScSeBr2,36.0439,28.4739,-7.57
HfZrPaTa,86.6478,74.7977,-11.8501
Ba3Li2Al7,12.8785,9.2196,-3.659
Sr2VN3,3.0922,2.746,-0.3461
TlCr2Sb,28.9056,26.3877,-2.5179
Tb2Pm3Dy2,26.061,29.0666,3.0056
U2Ge2Ru,25.5208,30.1178,4.597
YZr2Hg,61.7723,49.1263,-12.6459
Y2ZrHg,49.8222,39.7539,-10.0683
GaPRuAu2S,30.6381,28.6069,-2.0312
CaNiCN,26.3826,20.4923,-5.8903
Hg2HPd8,12.7704,14.0354,1.265
Rb(RhS2)2,46.169,34.0782,-12.0908
ReIrW,40.8733,47.7577,6.8844
Rb2CoGeI6,15.7247,15.3869,-0.3378
CaMnTe2N,37.502,33.0294,-4.4726
YZr2Hg,61.8668,49.1263,-12.7405
Hg3HPd6,6.8345,8.6897,1.8552
MgScB2,1.6238,2.8174,1.1936
TbCePd4,19.6881,22.6555,2.9674
YZrHg2,36.9734,30.2255,-6.7479
Pm11Nd4Er9,26.5443,28.379,1.8347
Cd2CoGeI,16.2203,16.7393,0.519
ZrAuF3,34.0986,28.8332,-5.2654
Sc(Zn2Ge3)2,12.7828,11.7313,-1.0515
CoGeI2,12.5817,14.3433,1.7615
Tb4Pm9Nd11,25.0829,26.9615,1.8787
SrTc2As,57.1058,47.9594,-9.1464
CoGeTe2I,24.9832,24.1889,-0.7942
Tb9Nd11Dy4,25.8904,27.6653,1.7749
H(Pd2Pt)3,32.3632,26.1179,-6.2453
YHg2W,23.3042,21.4106,-1.8936
Zr3AuF,69.6405,56.3035,-13.337
SrZrAs,47.6295,37.2645,-10.365
SrTa2As,32.2351,28.6268,-3.6083
Rb2HgBi2S5,27.8786,21.6769,-6.2017
POsAuS2,42.7224,39.8788,-2.8436
SrAs2Pb,22.1921,24.2446,2.0526
YHgW2,32.9776,32.8041,-0.1735
ZrSbSeBr2,48.7781,40.308,-8.47
ErHgRhPb,32.3815,30.6197,-1.7617
Mg3ZrI,26.7518,22.3912,-4.3606
Sr2ReAs,33.1652,27.3871,-5.7782
YHgW3,36.192,35.5282,-0.6638
Rb2YCuCl6,17.797,18.0892,0.2922
SrIn3Co,15.6624,17.0058,1.3434
NaAg3S,35.2774,27.0682,-8.2092
SrAsN2,11.419,9.9451,-1.4739
CsRb2SiP2,13.7912,9.2391,-4.5521
TiGeI2,15.9958,16.8293,0.8336
BiPIrSN,31.9541,29.6449,-2.3092
Sr3Sm5Te12,19.0524,19.7155,0.6632
OsPbAu2,47.8895,49.8634,1.9739
Y2HgW,36.0785,31.4836,-4.595
NaAg,17.5074,12.5861,-4.9213
ZnSb2Pd,29.3639,24.8198,-4.5441
YCo2HgGe,23.8088,20.0413,-3.7675
SrTlAs2,22.1854,21.1989,-0.9866
Nd9Er4Hg11,13.6163,14.8848,1.2685
PaSnGe,25.6973,30.9093,5.212
CsTa2SnOs,35.227,36.3087,1.0817
Li2TlPb2,28.375,30.2349,1.8599
CsGa2Ir,16.8565,20.0595,3.203
Sr2DyNpAs4,24.7572,22.8732,-1.884
Sr3Nd2HfAs6,28.3435,22.5803,-5.7632
Zr2SiOs2,49.3692,42.9897,-6.3794
LaReAs2,28.1962,27.4827,-0.7135
TbScCuRh,37.0094,31.2839,-5.7255
KLaRe2,37.2526,34.9791,-2.2734
Ba2Th(Cu2S3)2,27.5656,22.1133,-5.4523
ZrSi2Os,42.5073,38.035,-4.4723
PmYHg,24.7928,22.7498,-2.043
SrCrTcAs2,33.8234,26.9149,-6.9086
SrYHfAs2,42.4943,31.7017,-10.7926
ErTm2Al,23.5298,26.7382,3.2084
LaScRe2,56.5722,46.4356,-10.1366
ScFeRh2Au,48.2202,38.7848,-9.4354
CaPb2Se,60.128,54.1936,-5.9344
Ba3Zr2ScO9,27.9115,24.1161,-3.7955
Sr3Th2ZrAs6,31.3394,27.47,-3.8694
Y2ScHg,26.4103,21.6045,-4.8058
Sr3Si2BiPt9,67.4666,45.695,-21.7716
Mo2IrRu,29.5971,27.8409,-1.7561
CoOsN2O,71.2513,59.5496,-11.7018
CaPb3Se,59.6172,54.3543,-5.263
MgAg20(BiO4)4,20.6955,17.9099,-2.7856
MgAg20(BiO4)4,20.669,17.9099,-2.759
MgAg20(BiO4)4,20.6812,17.9099,-2.7713
Sr3AsW,29.3367,20.6848,-8.6518
SrNbCr2As,42.0174,32.818,-9.1994
CsTc2NiO8,17.5241,15.1531,-2.371
TaCoN2O,53.0848,46.9202,-6.1645
Cs4Hf2Sb,62.3487,48.8731,-13.4756
NiIr2W,26.5224,33.525,7.0026
Y2BeCuC,37.4779,28.5783,-8.8996
Sr3CrAs,17.3797,13.1456,-4.234
SrZr3As,67.7165,52.003,-15.7135
MgAg20(BiO4)4,20.6549,17.9099,-2.7449
SrGe2As,15.55,13.7896,-1.7604
SrAs2Os,23.9475,21.9201,-2.0274
SrRePS2,49.721,38.2357,-11.4853
LaEu2In,31.8301,28.7637,-3.0663
SrTc2As,57.9708,47.9594,-10.0114
ErGaSn2,19.3882,21.11,1.7218
SrAs2RuSe,35.016,30.614,-4.402
YScHg,13.5808,12.9692,-0.6116
SrLuAs2,20.6481,19.6107,-1.0374
Sr2TaAs,31.9306,23.4792,-8.4514
Mg2ScBiRh4,32.052,26.7133,-5.3386
ZnBiPb2,41.984,43.592,1.608
ScGa2PRh,32.449,25.3438,-7.1052
Sc2NbCuRh,54.8864,43.2521,-11.6344
K2TaZn,18.058,18.9662,0.9082
SmEuPb2,39.1076,41.0511,1.9435
NbOsCl3,40.2114,35.0129,-5.1986
K2TaZn,18.3342,18.9662,0.632
PmYHg,20.6355,22.7498,2.1143
CaLa3(PmY3)2,26.0953,21.5236,-4.5717
Nb8CuS20,77.593,60.3715,-17.2215
PmY5Hg3,26.0334,20.7355,-5.298
LaCeThPa,52.8392,51.7999,-1.0393
LiIrC2,35.6531,30.625,-5.0281
VGa2I,42.9123,35.9625,-6.9497
SrAsW3,39.1306,33.6995,-5.4311
Pm2YHg3,16.0998,15.8125,-0.2873
Sr2As2Pb,23.6232,19.9307,-3.6925
TlPI3,26.12,25.3923,-0.7277
CeNiC2,32.7959,24.4363,-8.3596
Pm3Y2Hg3,21.5313,19.8382,-1.6931
Pd2RuS,27.6477,25.8958,-1.7519
SrAgAs,20.5615,15.7578,-4.8037
SmCoSbO,19.7788,22.5776,2.7988
CaCr2Os,26.2631,23.2474,-3.0157
FeSbMo3,27.0796,25.322,-1.7576
CaCr2Os,25.9414,23.2474,-2.694
Pm4YHg4,13.0366,14.0355,0.9989
Mn3WI,73.276,61.8553,-11.4208
La3TeI,43.7112,31.7234,-11.9878
NbGaRu2,46.1455,42.0092,-4.1363
AcAlGaPt2,49.9703,39.461,-10.5093
SrTaAs3,22.0293,18.3815,-3.6478
PrLuRe4,31.3835,35.04,3.6565
SrAsOs2,32.0914,31.87,-0.2214
Li2Pm4C,23.0936,22.5692,-0.5244
PmY4Hg,20.3585,18.2842,-2.0743
In2SbCl2,15.4584,14.324,-1.1344
LaTeI3,31.8731,27.7277,-4.1455
RbSbW3,37.0866,34.3731,-2.7135
SrZr2As,60.15,46.7256,-13.4244
LuPaFeCu,45.6595,44.0144,-1.6451
Sr2TeAs,24.3304,21.5018,-2.8286
SrAg2As,26.4787,20.2775,-6.2012
Sr2AsOs,24.4712,22.4417,-2.0295
PmDy4Y2Sc,18.7959,20.3317,1.5358
K2TcIr,41.9566,36.013,-5.9436
NaAgS3,46.1852,33.78,-12.4052
RbPS4,38.7259,27.5666,-11.1594
Ag2MoCl,24.2525,19.086,-5.1665
Ba(GeMo)2,11.0388,12.5256,1.4867
Sr2ZrAs,38.8745,30.6317,-8.2428
Sr2As2Ru,15.1205,11.6211,-3.4994
Sr2HfAs2,40.0895,27.568,-12.5215
SrAsRu2,19.2076,17.5446,-1.663
DyScCu4,20.1777,19.0764,-1.1013
Y3HgN,38.2663,33.0389,-5.2274
TaMnNiPS,61.9234,56.677,-5.2463
CsNa2Hg4Bi,15.6024,14.8006,-0.8018
Al2PbBr,25.1365,22.8109,-2.3256
SrTcAs3,31.1635,25.9587,-5.2047
Ca(IrRu)2,34.3877,30.4339,-3.9538
CsTaBe,26.4563,25.495,-0.9612
Sr2ReAs,32.9319,27.3871,-5.5449
YTaHgN2,33.318,28.7883,-4.5296
Sr2ScAs,22.7912,18.641,-4.1502
CoSbWO2,31.0521,28.4937,-2.5585
Ta2AsP,30.1387,30.8008,0.662
Sr2ZrNpAs4,33.4399,28.8968,-4.5431
Sr4SmTh3As8,26.0418,23.7168,-2.325
NaZnI3,20.2782,19.1873,-1.0909
ZrTaAu,60.8494,56.5431,-4.3063
Y4HgSbN,33.2452,25.5912,-7.6541
Tb3Tm3Sc5,18.7556,19.8348,1.0792
Y3HgN,38.6535,33.0389,-5.6146
SrMn,23.8356,18.1838,-5.6518
Sr3CdMo,17.8955,16.6419,-1.2536
NaZnInSn,18.2024,18.2249,0.0225
Na2Bi2Au3,42.6846,41.9624,-0.7223
BAs2I,7.6574,9.751,2.0936
CuHgRh3,32.6416,23.5887,-9.0528
ScTi3Os4,22.7785,26.2019,3.4234
NaBi5Au4,48.6145,49.121,0.5064
SrCaCr3,19.6454,14.1223,-5.5231
SrZnRu,0.8357,5.0269,4.1912
Y2HgBi,38.4362,33.8672,-4.569
K4CoIr,17.631,17.417,-0.214
AcDy2Ho6Er,27.5766,30.2456,2.669
LiNb2(HgSe3)2,52.3198,41.4568,-10.863
Be2HgIr,11.2441,13.9454,2.7013
YHgSN2,38.0402,28.9286,-9.1116
Cu2HgRh2,22.6148,17.6552,-4.9596
PaAgSn,34.1034,35.9108,1.8074
SrAlAsN2,17.5749,14.6506,-2.9243
Zr11Ga9Ni4,48.8893,39.5175,-9.3718
ZrTlAg,60.1696,52.1484,-8.0212
Ba2CaPb,11.8453,14.9168,3.0715
NaCoOs,18.6332,23.0199,4.3867
MnPOsS2,53.415,46.2368,-7.1781
CsTaBe3,21.8987,18.6103,-3.2884
Y2HgIr,35.6217,31.0816,-4.5401
Li2Dy3Cd7,17.9747,18.8906,0.9159
SrEuInBi,28.4718,30.3267,1.8549
Na(Te4Au3)2,43.0098,40.825,-2.1847
SrTa2AgAs,32.809,27.8029,-5.0061
BaSc3Cr,13.1291,10.723,-2.4061
Li2Ce3Pt7,57.651,40.907,-16.744
Dy3Hg5Pd,10.4453,11.9677,1.5225
KP2SCl,18.1652,17.1453,-1.0199
LiMn2SbC,60.9498,47.2703,-13.6795
SrSn2As,16.9727,16.6134,-0.3593
SrCr3As,16.3491,12.1169,-4.2322
InAs4Au,18.2674,19.0389,0.7715
YHgIr2,34.2676,34.1277,-0.1399
CdCu2Mo,24.1366,19.7313,-4.4053
Sr2AsW,28.2543,20.6327,-7.6216
SrPmSe2,32.3327,29.1351,-3.1976
MnVS4,75.2223,57.3597,-17.8626
PmNd2TmSc,18.9043,20.6465,1.7422
YHg2F8,9.1421,7.5102,-1.6319
InRh,29.0522,25.6038,-3.4483
Eu2HgGe,19.99,17.9206,-2.0693
ReHg2As,13.2206,14.8857,1.6651
K3ZrSn,32.0564,26.6358,-5.4206
SrSiAs,30.0417,23.6702,-6.3715
SiTc2Rh,62.1076,51.4629,-10.6447
YGaHg2Os,20.5166,19.0708,-1.4458
Y2BeHg,25.1832,20.3045,-4.8786
TcSbF3,32.3688,26.0554,-6.3134
LiSm2OsC,38.7594,31.4397,-7.3198
InP2SeS,28.2396,26.3784,-1.8611
BaAl7,7.4947,6.6019,-0.8928
NaTm2Ag,29.4834,28.5137,-0.9697
BeRh2Au,36.4333,30.6772,-5.7561
Cr4NiPb,23.3057,23.0967,-0.2091
Cr2IrPb,30.0322,29.936,-0.0963
LiTbFeC,32.5727,27.718,-4.8547
Ga2Ge2Bi,14.5079,16.8403,2.3325
GeOs2Au,29.0706,33.5356,4.465
YTcN3,41.1544,36.0267,-5.1277
LiNiC,6.6121,6.051,-0.5611
Sr(GeBi)2,28.3517,29.7416,1.3899
Rh4PbS8,53.7158,40.797,-12.9188
SiTc2Rh,62.2208,51.4629,-10.7579
K2TiSi,8.2941,8.8523,0.5582
LiY2HgF,21.0157,15.9095,-5.1062
LuPaFe2,43.6489,38.5268,-5.1221
La(AlIn)2,15.6752,14.4524,-1.2228
ScSb2F,22.2077,18.1958,-4.0119
Ca3SbW,21.6758,19.9,-1.7758
Pm3Dy5,26.4302,29.0491,2.6189
Pr2Er2Tl3,28.5719,30.983,2.4112
LaAlIn2,19.9092,18.0196,-1.8896
SiTc2Rh,62.0227,51.4629,-10.5598
Na(TcRh)2,54.8284,45.484,-9.3444
SiTcRh,52.0176,42.8528,-9.1648
GeMo2Br,8.2182,11.1887,2.9705
MnNiRu2,52.7711,50.9936,-1.7775
AlSnF3,22.546,18.3961,-4.1499
YPuHg2,30.2674,28.4681,-1.7994
CsTaC2,48.3491,39.266,-9.0832
LiAsCBr2,27.7738,21.8272,-5.9466
Co2ReAs,0.9754,4.7937,3.8183
Pm2NdSmSc,17.677,20.686,3.009
USb2As,41.9484,38.3126,-3.6358
Co2ReAs,24.5153,4.7937,-19.7216
Y4Hg3Pt,35.8051,27.0324,-8.7726
Li4InPb,13.0568,13.5292,0.4724
Sr2CaRu,14.2115,14.2859,0.0744
Ba2CaRu,5.8398,7.4409,1.6012
Li2ZrNi,26.6494,23.1771,-3.4723
Ga(HgPb)2,22.7369,23.7687,1.0318
BaSr2Ru,8.3607,10.6449,2.2842
ZrNpS4,56.8781,47.5592,-9.3189
ZrPaS4,63.9484,52.0471,-11.9013
Sr3CaRu,15.3909,14.9383,-0.4526
YHgRh2,37.0974,29.1603,-7.9371
Cs2K3Sn2,17.9166,17.8842,-0.0324
Ba2SrRu,8.0092,9.2345,1.2253
VSi3I,39.8572,29.551,-10.3063
InGeF2,17.6031,18.596,0.9929
NaV3(PbN3)2,43.1519,38.677,-4.4749
LiCa2GeC,17.0237,13.7844,-3.2393
Ac2SbN2,34.421,35.7204,1.2994
BaCaRu,7.4898,10.0824,2.5926
Pr5Nd3Mg,2.0838,4.8652,2.7814
PaTaTi2,28.6859,33.1476,4.4617
LiLaOs2C,39.3207,33.1194,-6.2013
Na3CoPt,34.9262,25.9705,-8.9558
LaRu3W,51.8088,37.5482,-14.2605
InSn2Sb,26.6222,25.2924,-1.3297
YHg2Rh,24.4681,18.4691,-5.9989
BaCuHg2,0.2701,1.3123,1.0422
La2RePb2,50.7523,44.3409,-6.4114
NaAu3Se,43.0844,40.692,-2.3924
ErIn2Sb,28.0844,26.9977,-1.0867
SrMn,47.1773,18.1838,-28.9935
YHgBr2,17.6935,15.2018,-2.4917
Na2AuSe2,34.7073,29.7983,-4.909
TlSbMo3,30.696,29.6633,-1.0326
KRbBe2Sn,10.2736,7.6886,-2.585
YHgBr2,17.6869,15.2018,-2.4851
PrEuCu2,9.7231,11.17,1.4469
Sc6Si3C,26.4598,21.781,-4.6788
Nb2GeCl,74.23,62.4418,-11.7881
BaSrMn3,63.7434,51.7042,-12.0393
InSn2Sb,26.6205,25.2924,-1.3281
Sr2FeCu,24.6368,22.1427,-2.4941
Al7In,5.2112,6.3108,1.0996
TaOs2Pt,52.3542,48.9247,-3.4295
Bi2SbN2,31.3362,32.2316,0.8954
BaSrMn2,53.8186,44.6228,-9.1957
K2MnBr4,18.9649,17.5085,-1.4564
VSiSe,56.9916,45.0088,-11.9828
LiCeAu,23.8868,25.6866,1.7997
YInHg2Pt,32.2432,23.8145,-8.4287
YHgPt3,64.2713,43.8904,-20.3809
K3AsBr6,7.3272,8.0144,0.6872
La2RePb,49.0984,41.6388,-7.4596
LiFeF4,0.0897,-0.0,-0.0897
Hf2ZrPa,113.3577,90.1428,-23.2149
LiFeF4,0.1726,-0.0,-0.1726
CoAsIr2,30.459,31.5761,1.1171
SrGa2AgN,13.2259,11.9379,-1.288
Rb3HfCr,34.9585,25.2213,-9.7371
Ni9Pt11Rh4,51.5342,35.9992,-15.5351
PmBeSb2,28.4767,24.8814,-3.5953
KCoIr2,26.8556,29.884,3.0284
KCoIr2,26.7905,29.884,3.0935
LiFeF4,0.1076,-0.0,-0.1076
TcSeI3,42.647,37.482,-5.165
SrIrI,27.364,24.4374,-2.9267
Ag2MoCl,23.9251,19.086,-4.839
BaSr2PbO5,7.283,8.9156,1.6326
Rb2MnNb,58.7441,47.7236,-11.0205
OsRh3C,50.5214,38.3784,-12.143
KLa2Pb,41.9853,33.5633,-8.422
SrOsBr3,19.3472,19.2877,-0.0595
CaVSeN2,55.1512,43.4492,-11.702
Y2Hg3Pt,31.1237,22.4988,-8.6249
CaVCuN2,29.9658,23.5649,-6.4009
La3SbPb,50.2118,37.6086,-12.6031
Ba2LiFe,17.4957,14.1284,-3.3672
TiNbS4,61.1837,46.4123,-14.7715
CuNi2I,7.3996,9.6828,2.2832
Y2HgAs,27.8135,22.6611,-5.1524
MgCr(H4Os)2,9.0305,9.0275,-0.003
TmTl2AgF6,14.4464,15.3203,0.8738
YHg2As,14.822,12.5764,-2.2456
Al(InP)2,19.1621,17.2888,-1.8733
LaSb2Pb,47.9364,39.5126,-8.4238
Y2HgAs2,23.5545,19.4793,-4.0752
LaSbPb2,50.0799,44.664,-5.4159
Y(HgAs)2,14.0235,12.5801,-1.4434
Sm11Hg9Ir4,26.6118,22.3038,-4.308
ScSi2Pb,34.06,31.5525,-2.5075
GdHg6,4.2951,4.4643,0.1692
Y2HgSe,31.6411,24.9505,-6.6906
CaCuPb2,27.8868,28.7815,0.8947
La(SbPb)2,44.2152,38.5865,-5.6287
Y3VHg,49.186,38.8703,-10.3157
AcYSiHg,37.9511,36.2081,-1.743
Pr2Nd2Hg3,5.2294,6.9106,1.6812
BaCuHg,2.664,3.3389,0.6749
Ca3Ni5Te12,18.2337,15.6688,-2.5649
LaSb2Pb,47.9962,39.5126,-8.4836
AcEuPt4,74.1295,56.0333,-18.0962
BaGd3Cu,19.5059,20.5988,1.0929
YPuThHg,47.199,46.6245,-0.5745
KSn2,17.6927,18.4213,0.7286
YHg2Ru,16.6173,15.2176,-1.3997
CaY(TmHg2)2,11.1341,11.2422,0.1081
Er4CoRh2,31.0702,29.78,-1.2903
K2Ga4SnGe3,10.4892,11.0156,0.5264
LaTiN2,5.1468,4.5265,-0.6203
TlNi2Se,28.1656,27.2721,-0.8935
Sr3Li2Nb4O13,31.3407,27.8467,-3.494
ErScNiRh,22.1858,21.3958,-0.79
Gd2ErTh,38.6638,42.0812,3.4174
Pr2Nd2Tm3,18.9287,20.78,1.8513
Si2IrAu,30.2663,28.6152,-1.6511
NaInAs2Br,15.3633,14.8658,-0.4975
TbLuScRh,28.344,27.6002,-0.7438
Ba3Gd,7.53,8.6556,1.1256
GdHg3,6.7739,7.8627,1.0888
GeTePO2,20.6852,17.7814,-2.9038
YTa2Hg,39.9979,35.8609,-4.137
AcPRhN,36.7728,31.8718,-4.901
CaSi3,13.4265,7.2411,-6.1854
NaBiTe,30.8695,30.3347,-0.5348
YTaHg2,30.5865,25.7393,-4.8472
YTc2Hg,84.8168,69.4458,-15.371
SiOsI2,23.3549,23.2276,-0.1272
Ce2YBi,23.1321,27.5872,4.4551
K6Na2O,11.2984,10.1701,-1.1283
Pu3ThS4,61.8785,58.6778,-3.2007
NaCoPS4,41.2045,30.6381,-10.5664
Gd2ScPb,29.1364,32.1562,3.0198
ScTlV2Rh,73.1741,58.549,-14.6251
Y2TcHg,74.2543,63.1958,-11.0586
NaTlPS2,39.6912,35.4506,-4.2407
GdSc2Pb,22.8702,25.7562,2.886
YTi2Hg,18.3519,16.3995,-1.9524
SbPI2,23.7775,20.5044,-3.2732
Be2PbC,23.997,24.1707,0.1737
BeInBr2,10.3487,11.953,1.6042
YTmInHg,24.7865,23.8545,-0.932
YTm2Hg,27.7948,26.761,-1.0338
Be2InBr,8.6828,9.4841,0.8013