Formula,E_hull_DFT (eV/atom),E_hull_ML (eV/atom),Delta (ML - DFT)
PCl2,3.177,4.3674,1.1904
Cd2In2Pb,23.9863,25.4204,1.4341
Al2CdAg,11.8387,12.8423,1.0036
GaPbAu,32.5781,37.7172,5.1391
RbNiIr2,25.4205,27.3521,1.9316
NbSnN2,49.5087,43.6804,-5.8283
ZrCd2Mo,38.1524,34.9508,-3.2017
PrGeAs2,12.7734,12.4904,-0.283
SiPt4W,69.0144,49.2799,-19.7346
SrHfSi3,50.9204,34.2102,-16.7102
RbPuTe,31.9885,33.7237,1.7352
Cr2IrWN,33.6594,31.9935,-1.666
Ca(FeN)2,13.7205,10.9927,-2.7278
La(CdHg)2,17.5663,14.8681,-2.6982
SrNdI2,20.11,21.5586,1.4486
ReIrW2N,82.6889,81.5172,-1.1717
InFeBi2,31.288,31.266,-0.022
CePr2Pt,26.0416,21.2352,-4.8063
Sr2NdI,18.1773,19.7107,1.5334
Y3TcC,74.4228,61.5455,-12.8773
BaNaSb,22.4485,18.5228,-3.9257
FeSb,30.2905,27.6008,-2.6897
PmNd(SmHg2)2,11.8149,14.2033,2.3884
CaPm6Sm3Y2,23.0706,23.6922,0.6216
CaSb2,29.2745,21.5981,-7.6764
PrTl2Ge,26.7132,28.9654,2.2522
Tb2PrGe,14.1634,17.4431,3.2797
Pr3S3F,21.5673,16.3529,-5.2144
Pr(Tl3S4)2,49.9572,41.4723,-8.4849
Sc6CrSb2,18.9741,16.1498,-2.8243
SiTeAs2,30.166,27.0471,-3.1188
BaNaSb,19.0797,18.5228,-0.5568
La3Y6Er,27.0072,22.5905,-4.4167
SrScW2,33.5843,28.9344,-4.6499
SrBiAs2,22.8038,21.9609,-0.8429
Y4Tm7In,25.0142,25.9985,0.9844
Sm(TmCd)2,21.3407,24.6078,3.2671
PrAgS2,17.9059,13.5741,-4.3318
Sr4LiRh,18.0055,16.5211,-1.4844
Ac3ThAs4,36.0209,38.9264,2.9054
Sr4Ag2N,16.8693,15.7883,-1.0809
Y2TlHg2,26.5867,23.5422,-3.0445
BaSc4P,19.0364,16.2413,-2.7951
Ba(NaSb)2,24.1699,19.4024,-4.7675
AsPdRh3,36.5625,27.7791,-8.7834
ZrCrMo,41.5754,36.9239,-4.6516
LaHfS3,64.065,44.62,-19.445
NaPaBi4,47.0427,48.5908,1.5481
Ce2PaZn,31.3887,34.7865,3.3978
Th4SiTc,53.8008,53.2101,-0.5907
CrFe2Ni,37.2112,26.7066,-10.5045
CrFe4Ni,24.8524,17.991,-6.8614
CrFeNi4,27.5235,23.4937,-4.0298
Cr(FeNi)2,32.818,23.6872,-9.1308
Rb3Ac(YS3)2,34.7122,27.8754,-6.8369
KSiAu3,30.8509,30.5004,-0.3504
POsN,27.2209,25.3175,-1.9034
TlIrW2,43.3402,48.4655,5.1253
NiOsN2,42.0936,35.1568,-6.9369
ScReAg,55.8707,45.277,-10.5938
TaCu2,0.0,5.8186,5.8186
KW2S,31.0333,29.6524,-1.3809
Pa4SiTc,53.3359,53.937,0.6012
Na2AlAgN,17.4265,14.2632,-3.1633
BIrRu2,23.3824,24.1723,0.7899
In2ReAg,28.2636,28.9275,0.6639
NiOsN2,42.7326,35.1568,-7.5758
Cd(AgPb)2,34.92,33.8944,-1.0256
Sc2ReAg,42.1652,34.9553,-7.2098
Sr2SeCl2,27.8715,27.0086,-0.8629
Al3NiOs,14.2141,14.7603,0.5461
InRe2Ag,33.7954,34.9984,1.203
TaSb2N,26.3903,24.3145,-2.0759
Y2Hf(TlS3)2,66.0009,54.6302,-11.3707
ScReAg2,49.1103,40.0827,-9.0276
LaHfSc3,42.6585,31.6641,-10.9944
V2ZnGaO8,32.7141,25.561,-7.1532
Na3SnBi2Pb3,40.0179,39.2653,-0.7526
NaLu2N,22.4434,23.6633,1.2199
NaScBr4,12.9391,12.2811,-0.658
ZrCrMo2,34.8153,31.7226,-3.0927
TbPrS3,29.9852,22.6498,-7.3354
Cu(NiGe)2,10.207,7.056,-3.151
Sc2InRe,40.7058,34.0355,-6.6704
TaGa,28.3316,25.1291,-3.2025
NaTlSb4,42.4419,34.7195,-7.7224
YTlSiS4,46.2913,37.3169,-8.9744
NdPu3Ir8,48.4589,52.4046,3.9457
NaScIn4,20.4892,18.6899,-1.7993
ScInRe2,48.4505,43.917,-4.5335
SmMg3,5.6259,8.3113,2.6854
CrSbMo2,21.3273,20.9302,-0.3971
Tb4IrRh3,36.3176,33.5266,-2.791
Cr6NiSb2,21.6828,18.4003,-3.2825
ScInRe2,48.231,43.917,-4.3139
TbPmSiIr,26.9018,28.7363,1.8346
FePRu,13.6593,14.1386,0.4793
NaPmAgAu,31.6537,30.7344,-0.9193
In2SbRh,33.3729,29.7016,-3.6713
YHgN2,32.8412,27.1977,-5.6435
BeTl2Ni,27.585,29.2615,1.6765
Be2Al2Sb,25.4637,18.7394,-6.7244
Ag(AuI)2,32.406,32.0567,-0.3493
PmAlGa2Ni5,8.3132,10.12,1.8068
La5YEr4,39.2201,30.9012,-8.3189
BeAl2Sb,24.4659,18.7882,-5.6776
Ca(VSb)2,65.8575,50.6738,-15.1837
Y5(ErSc)2,9.5727,12.0418,2.4691
NiRuC,23.2272,22.63,-0.5972
ZrV3Ru,102.0175,80.1374,-21.8801
PaV2AgO8,28.5257,24.3017,-4.224
NdSm2Tl3,37.4704,39.295,1.8246
Li(SbP)2,19.7635,13.838,-5.9255
BeAl2Sb,24.4587,18.7882,-5.6705
Cs3HgSb,17.784,16.4699,-1.3141
TbNd2SmHg4,9.0033,11.2768,2.2735
MnSbP2,38.4933,31.8636,-6.6297
Ho12Tl5C2,37.5192,36.9996,-0.5196
Be(CuNi)2,4.2943,5.502,1.2076
MnSb3P,48.7925,37.7189,-11.0736
Fe2SbP2,36.0995,29.754,-6.3455
Sc3AgIr,17.616,13.331,-4.285
MgSb4W,37.8092,31.1518,-6.6574
Li4MnSb,24.4171,20.5596,-3.8576
BeTcP2,26.5066,22.9506,-3.556
Na3(Te2Au)2,37.0317,33.9737,-3.058
Ta5Ga3,68.8664,54.167,-14.6994
MnSb2P,48.6812,38.8728,-9.8084
Li4FeSb,19.1677,15.5907,-3.577
BeTcP3,22.6301,19.2511,-3.379
Sr2TaC,40.9069,30.9307,-9.9762
LiSbP,19.3947,13.479,-5.9157
Be2Ag2Sb,19.8904,16.1164,-3.774
Cs2BeN,36.2612,31.2815,-4.9797
Pa2Ag2O7,16.4359,18.8469,2.411
Pr6NdSc,0.1546,1.934,1.7795
NaSmAu4,39.3118,39.9269,0.615
NaTlPb,39.9816,39.7309,-0.2507
LaSc2I,21.2647,19.3845,-1.8801
NaSrInBr6,10.512,10.7339,0.2219
Li(NbCu)2,53.9047,46.189,-7.7158
NbCu2P,38.3092,34.3264,-3.9828
FeCuP2,18.4613,15.58,-2.8813
TaOsAu2,39.0303,42.949,3.9187
Na3In8,21.0638,20.1868,-0.877
Tl2GePbBr6,22.3715,22.3917,0.0201
NaSmHg4,7.7626,7.8485,0.0859
YTa2Os,50.4748,47.5439,-2.9308
Sr2AgRu,19.2375,18.5417,-0.6958
SiP2RuN,22.7388,20.848,-1.8908
SrAgRu2,20.5985,20.653,0.0545
Sn2GeTe4,31.3188,29.8717,-1.4472
Tb2TlRh,32.3472,33.3354,0.9882
Sc2SiAu2,31.7734,30.7497,-1.0238
Pr(ErSe2)3,29.5526,25.9623,-3.5904
Sr2TlRu,23.7528,25.3278,1.5751
Zr4AlPt,81.0695,62.5215,-18.548
TlCrIr,36.3113,37.2647,0.9534
Ac(La2Sm)2,41.5002,33.7908,-7.7094
Se3IN,36.7516,29.3898,-7.3619
YSb2Pd,32.4666,26.7492,-5.7173
ThPt12,87.3921,60.4585,-26.9336
NaHoTe4,32.1508,31.2964,-0.8544
Zr2AsOs,61.7924,53.2425,-8.5498
TmH4Ir,7.0774,11.3202,4.2428
Ag2(H2Rh)3,19.2661,14.5203,-4.7457
Ca4Sm3YSe8,49.9554,41.2167,-8.7387
PrGe2Au3,25.9561,27.2149,1.2588
Tl2TeI,41.4325,41.174,-0.2585
NaCu4Ag,13.8756,13.2434,-0.6322
NaBi2PbI,42.1406,41.5237,-0.6169
UCd2Rh5,43.6378,35.9624,-7.6755
Be17FeW,10.563,8.3173,-2.2457
NaSr4Tl,21.4159,21.7745,0.3585
SiPOs2CN,35.1778,30.6311,-4.5467
Ca(H2Ru)4,5.43,6.3615,0.9315
YbMgAu,21.872,25.5918,3.7198
TlSbS3,49.0671,37.7645,-11.3026
PaBe17Fe,9.9064,8.324,-1.5823
Ba2I2Cl,8.3621,9.5251,1.163
Y4MgMn,28.1074,24.6164,-3.491
Ce2Pm3YAs6,15.0288,17.231,2.2022
Zr4SiW,75.0637,60.5051,-14.5586
NiPtAu,42.763,37.1631,-5.5999
Sm2Tm2Sn2C,29.75,28.8832,-0.8668
CaAlSn2,8.5167,10.6604,2.1437
Ti2CuP,9.2318,10.5795,1.3476
Si2Sn2O7,18.377,11.2904,-7.0866
NaPaTe4,38.1885,37.6812,-0.5072
FeOsC2N,52.579,40.6522,-11.9267
NpU2,69.4407,73.8111,4.3704
SiSn,0.0,1.4844,1.4844
TlPW,108.46,91.1422,-17.3178
TiCdSn2Ge,22.9652,18.5596,-4.4056
La2Y6Er3Th,28.417,26.6688,-1.7483
Ce(ErTl)2,33.2347,36.0092,2.7745
Ca2RhWN,26.3269,20.6771,-5.6498
GaAgSn,16.9434,17.3005,0.3571
NaPuAgBr5,17.4686,18.0756,0.607
GaSn2Hg,12.4855,14.0487,1.5632
GaAgSn,20.2849,17.3005,-2.9844
Li3IBr,13.9165,12.6299,-1.2866
NaVSe4,52.5383,42.421,-10.1172
FeTePt,44.639,35.9533,-8.6857
BeZnAu4,37.0621,35.9726,-1.0895
Pr2YHg,5.689,6.1234,0.4344
AlPdI,13.8924,13.6495,-0.2428
TaBe3N,32.9469,26.5535,-6.3933
AlCd,5.4147,9.3364,3.9217
KRb8Na5,10.7961,8.269,-2.5272
ZrCd2Pb,47.2834,43.3966,-3.8869
Sr2VZn,39.1582,33.1394,-6.0188
ZrCdPb,57.1034,51.7073,-5.3961
ScSi2Br,24.2817,21.9364,-2.3452
Ca3IrC4,41.1566,29.5938,-11.5628
RbSiP2S,26.5644,20.1076,-6.4567
InGeTe,13.4924,14.6362,1.1437
BaNaLa2Pt,43.2126,28.896,-14.3166
La4YEr4,37.765,30.9143,-6.8507
TmPaSb2C,42.4675,37.7163,-4.7512
LiLaPr2,10.7181,8.348,-2.3701
Ge2RuSe,21.2536,20.663,-0.5906
Mg2SiOsN,29.6002,24.4262,-5.1741
BaLi2W,14.6999,14.3471,-0.3528
IrPtRh4,47.4754,37.4164,-10.059
BeCuN,26.394,22.3805,-4.0135
CaMn4Be,72.6304,56.9088,-15.7216
SrCrTe2,28.5747,25.767,-2.8077
TaCS2N,53.55,43.0833,-10.4666
GaBiSe,27.258,26.7648,-0.4931
Y4MgZr,27.7868,24.0412,-3.7455
V4Pt2Pb,107.8031,82.0934,-25.7096
Y4MgW,24.8872,18.7693,-6.1178
ZrPRu4,27.9607,27.128,-0.8327
PaBe17Al,8.9173,7.5742,-1.3431
NaMnAsSe2,58.7438,50.9483,-7.7955
Re(TcN)2,88.232,80.5081,-7.7239
Mn2Ru2Au,48.1887,43.7731,-4.4157
SnN,10.6087,13.2781,2.6694
LiInW2,26.273,28.0414,1.7683
CrOsW2N,83.5117,67.8845,-15.6272
SrHf3Mo,92.5831,68.0441,-24.5389
Pa3AsSe2,52.2444,53.7551,1.5107
FeTePt,44.8058,35.9533,-8.8524
TcPSeN2,42.7701,34.4025,-8.3676
Ta5Ga3,68.7025,54.167,-14.5355
NaErIn4,21.9962,22.7679,0.7716
SbRu2Pt,36.1635,30.5402,-5.6233
NaAl2CuBi,20.2033,18.8191,-1.3843
BaLiW2,22.6196,24.5733,1.9537
TlSb2Se,43.6879,36.6792,-7.0087
CdSb2P,24.9266,21.0619,-3.8647
CrGeW2N,26.1339,26.5409,0.407
U3Ga5,24.5225,26.9773,2.4548
BeHgAu,15.8764,17.0888,1.2124
CaIn2,11.6271,14.0533,2.4262
ReTeSe2,44.6963,40.674,-4.0223
Er8ZnNi2,22.9539,24.6053,1.6514
NiPb2Se,40.1761,39.2787,-0.8974
Gd2Fe3Ru,13.6798,11.8203,-1.8595
InPPb,25.742,27.8565,2.1145
Na2LiTlBr,29.6142,26.1519,-3.4623
AlZnTe2,23.6432,24.1449,0.5018
NaTbCl4,9.2941,10.9796,1.6855
AlZn2Te,13.0772,14.0374,0.9601
GeAsAu,17.8626,21.1293,3.2667
AlTeBr,18.9691,18.7722,-0.1969
P3AuN,26.8242,22.9262,-3.898
CdAs2Ru,19.1965,16.1218,-3.0747
Hf2Co2Cu,73.5257,54.3211,-19.2047
In4GeSb2Te,27.4331,25.1627,-2.2705
HfNb4In,121.6762,97.7759,-23.9003
La2YEr7,32.3032,30.4087,-1.8945
Ce(PuBi)2,46.6419,51.0235,4.3816
ScSbSe,17.0136,14.46,-2.5536
La12Y3Er,43.1971,29.7233,-13.4738
Al2HgTe,12.1439,12.2862,0.1423
ZrAlAg4,37.9048,31.2005,-6.7044
Ge(BMo)2,7.8959,8.3665,0.4706
BaPPt,35.4274,25.8446,-9.5828
AlHgTe2,21.8662,20.9436,-0.9225
YAlSe,35.4493,28.4227,-7.0265
SmZrNi4,24.3592,23.7469,-0.6124
Th2Co2Cu,42.5258,41.098,-1.4278
CdCo2Cu,21.5705,18.8244,-2.7461
SmHo4Rh5,37.4978,32.8387,-4.6591
DyFeSi,14.9948,14.0818,-0.9129
NdCoAs,0.0,5.9952,5.9952
VS3I,59.108,45.4735,-13.6345
Na2WC,34.0475,30.4503,-3.5972
PrSnBi,25.1861,25.3779,0.1918
ScO2F,58.9193,53.2114,-5.7079
CoTcO2,18.3433,18.337,-0.0063
Na3WC,37.9412,30.2473,-7.6938
Zr2TaCo2,57.1004,45.1962,-11.9042
Hf3(AgHg)2,70.4535,51.9173,-18.5362
Cu2Pb2O7,10.0607,9.3075,-0.7532
AlMo3Rh,33.0134,24.51,-8.5035
ZnGa2Sn2Pd5,14.9485,14.3112,-0.6373
ZnSi2,14.221,10.8828,-3.3382
MnFe3Sb,43.8222,34.9002,-8.922
AlMoRh,28.5734,23.9037,-4.6698
NiP2PtS,36.9704,30.1654,-6.8051
NaCd7Au2,25.3394,25.3516,0.0122
AlMoRh,28.8248,23.9037,-4.9212
Ho2Er,24.1265,28.7692,4.6426
TaNb4Pd,93.9923,81.0487,-12.9436
LiTiIn2,9.0051,11.438,2.4329
FeNiSe,47.905,35.2509,-12.654
As2PbW,30.1512,30.374,0.2228
NaPmIn4,21.194,22.0558,0.8618
Er2Co2Au,24.0231,25.7057,1.6826
TaOsAu2,43.3137,42.949,-0.3647
Er2Au2O7,6.8324,8.9778,2.1454
GaNiPPtS,40.4222,30.4456,-9.9767
LiCaLaEu,21.6125,18.147,-3.4655
Ba(NdI4)2,19.793,20.3935,0.6005
ZrCrRe2,46.858,44.2649,-2.5931
ScSiAu3,46.7598,43.7192,-3.0406
NaHfAl,52.1812,41.1099,-11.0713
TaNb4Ir,97.5697,83.9345,-13.6352
Sc2SiAu,35.0581,33.6961,-1.3621
Pr2NiPd,10.6387,9.9462,-0.6925
Ta2OsAu,40.4924,45.0417,4.5493
Sc2Si2Au,37.8002,33.976,-3.8242
Ce(GaCo)2,10.4087,12.8155,2.4068
CsRbClO2,5.2253,6.5903,1.365
Ta2OsAu,40.7637,45.0417,4.2781
La2BiSb2,43.5238,34.1597,-9.364
HfP2SO,49.2328,38.5547,-10.6781
Zr(ReW)2,39.5498,42.9873,3.4375
Nd2PdRh,21.9744,25.5674,3.593
Ti2PdS,13.8145,14.0839,0.2694
Cs2PNCl6,13.6232,12.6236,-0.9995
TaOsAu2,43.7208,42.949,-0.7718
Dy6Y3Er,18.6461,21.7513,3.1051
CaTlCd17,20.0604,20.4801,0.4197
CaScCd17,18.3462,18.2902,-0.056
CaSmCd17,18.6179,19.1875,0.5696
CaThCd17,20.8073,21.3768,0.5695
CaLaNi17,9.7566,9.1322,-0.6245
CaCeAu17,43.6696,44.732,1.0624
Tm2Fe17C3,10.956,9.7785,-1.1774
Ca2In6CuIr,21.5987,20.1413,-1.4574
NpCuTeS,36.5776,34.9236,-1.654
K(Tl2In)6,39.0356,39.4766,0.441
Tb(CePt)2,43.5364,34.8858,-8.6506
Dy(ErIn4)3,21.7102,22.9293,1.2191
ZrCu2As,30.4683,27.1802,-3.2882
Na3ZrAs,37.8224,30.1679,-7.6545
Fe2Ir2O7,6.6402,6.561,-0.0791
K3CrI6,14.0523,14.3074,0.2551
Sc3BiSO,61.1803,56.4302,-4.7502
LiY3Tl2,19.022,21.8838,2.8617
CaAcNdY,32.0488,31.241,-0.8078
ZrAlOs4,44.7613,44.5385,-0.2228
NaCuAgMo2,30.0293,22.9537,-7.0755
ZrTa4Al,41.5663,40.9403,-0.6259
ZrB2Ru,28.5579,27.5023,-1.0555
NaHoCl4,9.5772,11.2232,1.646
Cs(Cu2Ni)2,10.6273,11.2843,0.6569
Nd3(HoAg)2,27.6458,27.8436,0.1978
SmY2Er2Sc,17.3502,19.3533,2.003
SiOsCN,42.6604,30.7994,-11.861
K3BF6,1.474,2.6045,1.1304
ReW2,26.278,37.7564,11.4784
K2CoAg,16.1339,14.4064,-1.7275
V2CrGa,68.6167,54.988,-13.6286
HfCo,49.5913,37.9089,-11.6824
YScCuSi,40.4969,33.9651,-6.5319
CeY2PuAs4,19.2145,21.6682,2.4536
PtSeBr2,38.7994,30.8788,-7.9207
ErTmAgRh,34.4709,31.3423,-3.1286
ErPuInCu,31.9087,34.6158,2.7071
Cs2RbSn3O8,47.6916,38.583,-9.1086
LiNiAgHg,11.6762,11.1883,-0.4879
ZrCrRu,41.1988,35.7885,-5.4102
Ce(SmTh)2,41.4321,45.891,4.4589
Al2GeSbN,20.8767,16.9169,-3.9598
CsBeP2,5.2212,5.7183,0.4971
LaPa4Rh15,52.0685,40.7466,-11.3219
ReSi2AgN,72.9468,64.3076,-8.6392
NaPbCl4,11.4616,12.4992,1.0376
TbNd2(YTm)2,23.6424,26.0815,2.439
Ca2UNbN4,26.7088,25.9686,-0.7402
La7Y2Er3,39.8594,30.2168,-9.6426
Zr4CdSi,71.578,56.3584,-15.2196
AlCr4Co,15.8905,12.4132,-3.4773
TiCrN2,5.2344,8.016,2.7816
Sm2(HgBi)3,26.1912,27.4089,1.2177
BeZn4Pt,23.8908,17.9665,-5.9243
NaZrCl4,21.6441,19.2217,-2.4223
TmPaRh2,48.1759,44.3024,-3.8735
Y(Er3Al)2,28.3456,28.3249,-0.0207
EuSnPt,22.087,16.9161,-5.1709
ZrCrRu2,34.7196,31.8322,-2.8874
HoBe17Fe,6.4261,6.2557,-0.1704
NaWCl4,12.4347,13.6472,1.2125
Gd2HfZr,75.3423,60.8904,-14.4519
Tm3Ge2RuC,27.4469,26.4577,-0.9892
TiBe17Al,5.9034,5.2784,-0.625
RbZnSe2N,30.503,24.1972,-6.3058
NaCrI4,20.4398,20.9912,0.5515
Ce(ThAu)2,50.0379,52.8897,2.8518
Be17CrNi,2.9595,4.1759,1.2164
AlIn4Ir,21.6667,23.1047,1.438
BaNbTe2,56.1332,48.9812,-7.152
TmBe17Al,8.2918,6.4276,-1.8642
Be17CrRu,1.274,2.6781,1.4041
NaFeBr4,12.7879,12.8758,0.0879
CrSbIr,34.1685,30.896,-3.2724
ErBe17Ir,3.7153,5.4043,1.6889
ErThBe17,4.9283,6.5679,1.6396
DyBe17Re,3.4632,5.0096,1.5464
Na2Tl2CdIn2,29.9793,28.9794,-0.9999
Na(CuAg)2,17.3437,15.4679,-1.8759
MgBe17Rh,2.6525,3.3978,0.7453
NaFeI4,21.1237,21.0423,-0.0815
Ti2PdRu2,3.4894,8.431,4.9417
Rb2AgRhN,23.4768,18.0139,-5.4629
TaNb2S3,81.1924,65.2421,-15.9503
NaCuAg,21.083,18.2464,-2.8366
Y4Pd15Pb,24.9592,23.6286,-1.3306
Be17MoW,7.2347,6.031,-1.2037
Pr3(TmAg)2,15.6958,15.7524,0.0565
Be17NbAg,9.4478,8.8711,-0.5767
NaUTl2,48.9031,49.1038,0.2007
BeGa2As,7.5246,7.9285,0.4039
Be17NbMo,8.9737,8.2126,-0.7611
BeZnAg4,26.5398,20.3761,-6.1637
ZrCd4Si,32.0074,28.1926,-3.8148
Be17NbAu,9.8455,10.0084,0.1629
Be17MoPd,6.0572,5.2082,-0.849
DyBe17Mo,3.0214,3.6371,0.6157
BaNaGa4,10.9908,10.042,-0.9487
Mn3Ga2Co3,42.7151,35.5355,-7.1796
CsInSi,11.0167,10.9699,-0.0468
BeZnHg4,5.5997,3.3989,-2.2008
Pu3Mn2Sn3,59.4241,56.0324,-3.3917
BRuPb3,36.0685,37.3794,1.3109
NdBe17Rh,3.8249,4.7144,0.8894
Sm2BeSi2,18.594,18.7565,0.1625
Mo2(RuPt)3,44.7135,34.0974,-10.6161
CaSi4W,20.8998,15.8902,-5.0096
YAl9Cu2,5.9682,5.447,-0.5212
ZnHg2Pb,15.003,15.6746,0.6716
CdIn5Rh6,34.0011,27.6745,-6.3266
Mo3Pd2Rh3,32.0798,24.9361,-7.1437
SrCa2Tl,20.107,19.8589,-0.2481
SnAsBr2N,19.1394,16.7268,-2.4125
KNbS3,66.4721,50.2135,-16.2585
KBi2Rh,42.3618,40.359,-2.0027
BeIn2Tc,34.2038,31.8985,-2.3052
RbUN2,25.6311,27.0073,1.3762
InAgGe,17.0142,17.0329,0.0187
ScBe17Rh,4.3412,3.9272,-0.414
Zr2Be,58.8094,51.0254,-7.784
ScSi4Se,30.0801,22.2673,-7.8128
Ta2SiPt,44.1104,37.739,-6.3713
Y2TiAl2Ni5,31.2562,28.2797,-2.9765
Zr2ScTc2,98.4342,81.7415,-16.6927
TbMoAs2,14.8836,17.9053,3.0216
Sm5RhPb2,18.1979,21.0841,2.8862
AlZnSeN2,28.5251,23.3852,-5.1399
Ca2SiRu,17.0161,14.0014,-3.0147
PtSeBr3,36.5823,28.9466,-7.6357
CrSnPd2N,26.2209,21.6299,-4.5909
Na2(InPb)3,33.2215,32.5896,-0.6319
TbScBe17,3.1827,3.5598,0.3772
Tb(Nb3S4)2,87.6656,67.123,-20.5426
ThScBe17,5.3076,5.7066,0.3989
SbTe2PbSe,46.2983,40.8647,-5.4336
Sm3Y2Er7,25.7771,27.9224,2.1452
Re2GeN,100.2841,91.3846,-8.8995
PdPb3Au,44.7575,45.8159,1.0583
Tm4SbPbC,33.7422,31.319,-2.4231
PmV(GeO4)2,13.3457,12.6814,-0.6643
TaSiPt2,57.2852,42.5971,-14.6882
Cd2GaSi2,15.5967,13.5304,-2.0663
CaZrOs,26.5498,30.1999,3.6501
AlFeRe,28.872,28.0432,-0.8288
Tm4TlPbC,35.2953,34.2498,-1.0454
Na2(LaPb)3,40.8545,34.407,-6.4475
SrAc2Tm,43.3788,46.3518,2.9729
Tm2SbSe,37.2311,34.4623,-2.7688
Re3SiN,80.1898,75.1989,-4.9909
Ac2Tm,53.3635,56.4347,3.0711
RbMnPN,36.1764,27.0754,-9.101
KPmPt4,65.1334,46.5342,-18.5992
Si2AgGeN,16.348,11.978,-4.37
CaReOs2,32.7341,36.1642,3.4301
Rb3Na2Au3,22.1815,21.1403,-1.0413
CaRe3Os,34.9704,36.992,2.0215
Pr2HoPt,26.8636,21.9976,-4.866
Na2BiOsC,42.219,36.6254,-5.5936
NaNdIn4,21.1674,21.9573,0.7899
Si3NiSe,20.0855,14.1068,-5.9787
AlSbMo2,29.4716,23.7251,-5.7465
Sr2Cd2Ag,21.3425,17.2554,-4.087
Zr2AuI,61.9145,53.281,-8.6336
Na2(SrBi)3,27.9261,28.1116,0.1855
Na2(SrSb)3,23.9791,20.0628,-3.9163
AlSbMo2,29.7153,23.7251,-5.9902
K2ZnAs,8.891,8.9042,0.0132
CsRb2PuO6,8.8326,10.1206,1.288
K3Cd5F12,0.3876,0.0,-0.3876
IO,40.8894,31.3664,-9.523
PmTh4Tl15,52.3763,53.612,1.2358
MgZnRe2,28.649,27.318,-1.331
Na3Tl2Au3,37.0022,35.7715,-1.2308
CdIrPb2C,48.0297,44.6286,-3.4012
AlSbMo2,29.8123,23.7251,-6.0872
GdMgZnPb,23.4434,24.92,1.4765
EuGdZnSn,21.0662,23.1017,2.0355
TiBe17Ir,4.0931,5.0385,0.9453
Be17SiTc,8.5077,7.5339,-0.9738
Be17TcW,10.9698,9.1743,-1.7955
PaBe17Tc,10.3018,9.1852,-1.1166
CeBe17Tc,9.7885,7.9132,-1.8753
PmYSe2Cl,48.559,46.1751,-2.3838
LaNb2I,86.0021,68.6515,-17.3506
ZrBe17Mo,6.6931,6.2509,-0.4422
Be17VCo,8.4015,7.5489,-0.8526
ZrPaBe17,9.9316,8.9444,-0.9872
HgBiTe2N,29.7713,28.154,-1.6173
Ti2(NbIn)3,61.8145,52.9944,-8.8202
AlZnSiN2,30.2807,24.5644,-5.7164
Cu2Ni7Ir2,13.13,15.6393,2.5093
AlSnAu,23.7863,25.6416,1.8553
BaCrSb2,24.0404,18.9507,-5.0897
CrCd2Ru,16.2388,17.3377,1.0989
GePAuN,31.2974,28.5224,-2.7751
CaPb2,36.6064,38.8502,2.2438
ZrBeIn4,30.1546,27.4524,-2.7023
Se12S5I3,38.2152,27.7367,-10.4785
Hf3(Cu2Ge)2,52.5313,39.8719,-12.6594
Gd2RhN,26.4275,25.7496,-0.6779
Ti3SbS,15.7818,12.496,-3.2858
Be4PtSe,23.082,17.9994,-5.0826
CeSm2Tm5,23.8937,26.5984,2.7047
K(TiHg)2,1.1498,3.6788,2.529
CrCuP2,27.1765,23.1775,-3.999
Na2InSnPb2,29.5695,29.6569,0.0874
CeUCN,50.3435,47.8952,-2.4483
LiTcB4,15.742,16.0828,0.3408
TbNi4Sb,18.8611,18.5837,-0.2774
Mn4BePb,75.5929,62.8586,-12.7343
Na2SrSn2,20.4928,19.6255,-0.8673
Pr5In2Pt,12.7704,10.9866,-1.7838
Zr(ScIn)2,26.0099,23.1155,-2.8944
Ce2GdAg,27.6757,28.6476,0.9719
NaHgS4,38.4699,27.644,-10.8259
Hf2SnIr2,69.1396,56.8681,-12.2714
Ce2SbCl2,19.0591,19.5109,0.4519
NaInS4,41.2242,31.3336,-9.8906
CaLa4Be,40.8629,25.7582,-15.1047
YBiMo2S,43.0729,34.1035,-8.9694
Ca2LuN,10.7196,13.1092,2.3896
CaNi,11.9699,9.4598,-2.51
InRe2Ag,33.4287,34.9984,1.5697
Zr3AuS,56.4626,45.7163,-10.7463
NbH8Au5,27.2084,25.4787,-1.7297
BeFeP4,14.8016,12.481,-2.3206
In(ReAg)2,33.1885,32.6457,-0.5428
CaYTmIn,22.1927,21.1843,-1.0083
NaCa3Rh,18.6669,15.3503,-3.3166
NaHf3Ir,101.6361,75.7825,-25.8536
TbPrAs2Pd5,13.7429,15.5729,1.8299
HfNiSb2Ir,61.7832,47.9456,-13.8376
NaCa2Rh,20.8331,17.268,-3.5651
HfPIr,44.3019,32.6607,-11.6412
Hf2TlAsIr,79.8975,63.8459,-16.0517
LiMoIrOs,28.5503,29.4234,0.873
SrVMo2,37.5815,33.369,-4.2124
Cs(Ni2Ru)2,13.507,14.6944,1.1874
Hf2PIr,90.0093,67.581,-22.4283
Sr2BiW,35.5472,30.5279,-5.0193
HfIrAu2,64.2426,58.9515,-5.2911
Hf5IrRu4,83.5757,63.383,-20.1927
LiHf2Ir,82.3326,64.0534,-18.2792
Mn4BeRu,69.2494,57.4454,-11.804
BeIn4Ru,16.9744,17.9955,1.0211
Hf(CuIr)2,41.4484,37.1786,-4.2697
Sm2Sn2Pb,23.3825,26.7877,3.4052
Hf3IrF,97.5042,71.0666,-26.4376
TbMn17Os,92.6525,75.45,-17.2024
BeRe4P,41.5278,39.3762,-2.1517
HfTeIr,51.8054,40.5655,-11.2399
Ac2VReO8,29.3306,28.5113,-0.8192
HfThIr2,73.3862,67.2974,-6.0888
YTeI2N,42.6674,37.0194,-5.648
Ca(ScFe)2,30.6554,27.7062,-2.9492
Ho4Ir3Rh,35.7284,36.3697,0.6413
CuBi3Mo,47.3564,42.9251,-4.4314
Hf2PaRh9,65.5809,48.0184,-17.5625
PrY3Ni2,74.89,64.601,-10.289
Y3TmNi2,80.7611,70.2843,-10.4768
ScFe,22.2357,22.1284,-0.1072
PmScGa,14.521,15.6379,1.117
YV2NiTe,95.1015,76.7859,-18.3156
Nd3YNi2,35.2387,34.5801,-0.6586
Pr3YNi2,27.1462,22.912,-4.2342
ScFe,7.5119,22.1284,14.6165
YTm3Ni2,38.2174,37.6046,-0.6127
Pm3YNi2,35.2927,35.2091,-0.0836
YZrCo4,35.3846,30.9343,-4.4503
CoTc2Br,51.7235,44.1937,-7.5298
TbCe(US2)2,50.3197,43.8259,-6.4937
CaEuPd2,16.5533,18.6085,2.0552
NpTi2Ir,30.7065,34.5295,3.8231
Ni(H5Rh2)2,13.5729,9.7416,-3.8313
CrCd2Tc,35.504,32.5951,-2.9089
Ge3Mo5,4.4449,8.5044,4.0595
Rb2Na2Pb,19.8828,17.7599,-2.1229
U6ReRh2,60.9309,60.5856,-0.3453
Pu4PaH10,23.4232,24.8981,1.4749
TmBC,44.4304,37.632,-6.7984
RbOsW2,98.1907,77.7176,-20.4731
VNi6Pd,22.9339,21.2637,-1.6702
Nb(MoS2)3,45.2108,34.7017,-10.5091
PuThSc3,22.9594,27.5631,4.6037
YHfCoGe2,52.8752,40.6549,-12.2203
Nb2Al2Bi,62.6357,54.9521,-7.6836
Cr4(FeH3)3,10.7337,7.5985,-3.1352
Y3Ga3ReGe2,20.9251,18.9501,-1.975
Pr3TlCd2Rh3,24.1321,20.6497,-3.4824
Yb2CuIr,29.6416,31.8971,2.2554
Li2W,8.5862,13.453,4.8667
YHfTc2Te,106.6088,86.4188,-20.19
PtAu6,54.4587,50.6,-3.8587
Tm2SnHgRh4,34.0155,28.9112,-5.1043
ZrZnI2,34.4751,30.1868,-4.2883
SrEuSiAg,32.6947,26.1671,-6.5275