Formula,E_hull_DFT (eV/atom),E_hull_ML (eV/atom),Delta (ML - DFT)
CaPuGe2,16.489,20.1036,3.6146
ZrAl2V,57.9851,47.9684,-10.0168
Nb2BiSb,95.7985,81.8181,-13.9804
CsPaSbO5,16.1147,18.9866,2.8719
Cr(CdP)2,25.215,22.5812,-2.6338
Nb2BiSb,89.6811,81.8181,-7.863
Be2AgGe,11.9234,10.3332,-1.5903
InPd2,13.0771,16.7611,3.684
YOs2,5.7892,36.9632,31.174
PtW7,45.0324,46.0892,1.0567
K3(Tl2Sb)2,33.7988,31.772,-2.0268
NaCaTa3,30.1371,30.9276,0.7905
AsIrPt2,52.7598,46.5433,-6.2165
CsTaMn2,66.5585,55.164,-11.3944
NaInSn2Pb,24.4911,24.9083,0.4172
Re3HgIr,36.1944,38.0835,1.8891
Cu2GePbSe4,33.26,29.4379,-3.8222
SrCuRh,23.0925,19.6559,-3.4365
Ac4Te(AsPd4)3,26.5573,27.8769,1.3196
YCoOs3,47.8294,44.2301,-3.5993
ZrBrCl3,25.2458,21.6599,-3.5859
Ce3Ga3Hg,9.4588,12.7277,3.2689
AcThGePt,56.6653,52.4867,-4.1785
BeReTe2,26.5643,28.3556,1.7913
Th2Te2MoBr4,30.8696,31.3645,0.4949
LiAsP,16.1579,13.5568,-2.601
YCoOs,46.4229,43.1105,-3.3123
Sm4Y2HoMg,20.888,21.8727,0.9847
CeZrRu,46.2457,43.2333,-3.0124
CeReTc2,62.8138,57.5269,-5.2868
AcEuZnPt,46.9277,41.8303,-5.0974
Pm3InGa3,12.1767,15.5763,3.3996
Sr3(PrV)2,41.515,34.8836,-6.6314
AcCdPt,43.2881,39.0472,-4.241
CdPd2,13.8374,17.2931,3.4557
NaCaTa,18.1132,20.0971,1.9839
Ce2ReTc,46.2352,45.3562,-0.879
NdPd2,13.5737,17.971,4.3972
Rb3Au2Br9,13.802,13.9426,0.1406
YCoRh,48.6357,38.3467,-10.289
SrTa2Cu,32.7957,28.5513,-4.2444
YCoRh,48.2905,38.3467,-9.9438
AcPu(AsPt)2,54.8698,47.4327,-7.4371
AlAsCl,22.6463,17.3945,-5.2518
YZnOF2,21.7509,19.74,-2.011
Ta2Pd,30.1813,35.3468,5.1655
Pm3Ga3Hg,9.6672,12.9688,3.3016
Te2Pd,29.5814,30.9048,1.3234
Ti2SnPb,24.1607,23.1577,-1.003
NaEr(SnSe2)2,35.0462,30.6259,-4.4203
Pm2Pb,19.0263,36.3146,17.2882
Ba2SrS,13.5352,12.044,-1.4912
Tm2HgC,29.9517,27.7939,-2.1577
Ca2TiMnBr,25.5644,21.1915,-4.3729
Ca2TaTc,35.5098,33.3799,-2.1299
ZrTiCu,39.3433,34.0536,-5.2898
Cs5AuO,25.5887,23.5207,-2.0679
Dy3Ga3Pt,22.3494,21.9459,-0.4036
Dy3Ga3Hg,10.8325,14.2134,3.3809
ZrCuW2,45.7954,45.088,-0.7074
Dy3Ga3Ir,15.5728,19.7595,4.1867
ZrTiCu3,27.1561,23.1204,-4.0356
CaBiPd2,18.5082,21.8438,3.3357
Eu2IrPb,37.7481,40.3942,2.6461
La3Ga3Ge,26.3745,20.2417,-6.1329
Ca2TcTe,36.3046,32.0255,-4.2791
CaPr2Ni,0.0,0.0,0.0
Sm3Ga3Ge,14.9576,17.0684,2.1108
Ni(PdPt3)2,58.4354,42.9238,-15.5116
GaSiSe,19.0602,18.4095,-0.6507
SrCuTc2,52.1638,45.0121,-7.1517
LiPBr,18.0388,13.9112,-4.1276
InGaPb2F6,17.1006,17.8934,0.7928
Mn2MoSe,65.8489,52.544,-13.3049
Re2NiIr6,47.0531,45.2198,-1.8332
La3InGa3,23.6111,18.7985,-4.8126
Ho3Ga3Pt,22.7502,22.3499,-0.4003
Mg2TaBr,13.8007,15.1611,1.3604
Ga3HgI3,10.8831,11.4315,0.5483
Ho9Pb3C2,37.6511,35.7316,-1.9195
Rb3Pr3GeSe8,24.8308,19.9117,-4.9191
NaAcFe2O5,19.5252,16.9983,-2.5269
La3Ga3Ir,25.9605,21.8605,-4.1
Ni(RhPb3)2,37.1901,36.8187,-0.3714
Li2CrRe,13.0857,14.5791,1.4934
Nd3Ga3Pt,26.2187,24.124,-2.0947
Na3Y3MoO8,26.4389,23.4042,-3.0347
ZrGa2Ru,26.9144,25.0547,-1.8598
LaIn3,24.0587,21.5866,-2.4721
In3W,20.5338,22.8093,2.2755
LiCdP,14.6159,12.0261,-2.5898
RbCdGa2Au,16.8784,17.6294,0.751
ZrGaRu2,28.425,28.0416,-0.3834
Dy8Te4P3C,27.5358,26.9753,-0.5606
Sm3Ga3Ru,11.4734,15.0914,3.618
YCoRh2,48.5036,36.4665,-12.037
Sm8Te4P3C,26.355,25.8142,-0.5408
ThNiAgPb,38.9033,39.8102,0.9069
Ag2TePb,36.4411,33.9279,-2.5132
Co2IrPt,36.3523,32.9186,-3.4336
TcRu2Cl,33.0193,30.5533,-2.466
Mn2OsSe,72.7222,60.2382,-12.4839
Tm3Ga3Ir,17.0134,21.2181,4.2047
Y3InGa3,8.0393,10.2123,2.173
Tm3Ga3Au,18.4294,22.0238,3.5944
YCoRh,48.5162,38.3467,-10.1695
Th3Ga3Tc,38.3477,40.4529,2.1052
CoGeSbC2,40.2349,28.9594,-11.2755
TiBe,0.0,0.0,0.0
Pr2TeC,16.3701,15.6402,-0.7299
Zr3Sc5H12,0.0,0.0,0.0
Ac2B3Pt12Au,69.2327,51.8431,-17.3896
Pm9Pb3C2,35.4468,33.4417,-2.0052
PmScSnPd,24.3906,22.9375,-1.4531
OsPd3Se,29.9452,29.131,-0.8142
TbErIn6,21.4685,22.9043,1.4358
PRh2Br,27.9459,21.958,-5.9879
PRh2Br,28.3135,21.958,-6.3555
ScZnCu,23.0031,19.038,-3.9651
Li6CoNiP2(CO7)2,27.1329,22.0993,-5.0336
Re3SiAs,39.0846,38.3133,-0.7712
PuBiRu,48.2194,50.5338,2.3144
SrCuW2,34.1317,29.0883,-5.0434
NaCdRe2,57.121,47.2002,-9.9208
OsPdSe2,39.1906,37.3984,-1.7921
Sc8CSe3S4,37.521,32.7508,-4.7703
POs2Br,26.0371,28.4171,2.38
Co2PBr,20.4616,13.356,-7.1056
Cd7Pb2,25.1596,26.8394,1.6798
In2CoBr,20.3432,17.7174,-2.6259
NaErMg14,5.6397,6.0865,0.4468
Sm9Sn3C2,28.678,26.7446,-1.9334
HfGaOs2,58.6151,51.5876,-7.0275
AcGaPt3,67.3747,52.1915,-15.1832
CrSbS2,36.6648,26.8733,-9.7915
Tb4Pr3Y2,14.3335,15.7681,1.4346
PrPuRh4,43.389,34.9024,-8.4866
CeYGa2Pd5,21.4733,20.196,-1.2773
ScAsP4,25.4942,20.2969,-5.1972
TaCu,16.7673,21.6016,4.8342
ReSiAg2,29.8373,25.8662,-3.9711
TbPr2Ag,12.1564,12.5776,0.4212
Th8Te4Ir3C,54.5139,54.3494,-0.1645
CaPm2Th,25.5305,31.711,6.1805
ReSiAg2,29.6618,25.8662,-3.7956
Sc2ZnCu4,24.6386,19.7989,-4.8396
VCoHg3,28.0185,22.4553,-5.5633
Ba6Sr2Ni,5.5287,4.8656,-0.6631
Nd2CoHg,13.5709,16.3796,2.8087
TcSb2Cl,47.2926,38.0757,-9.2169
Ce6Tc2Ni,39.0341,35.9325,-3.1017
LaOs8,43.2423,45.0447,1.8024
La8Ir,50.6937,36.2913,-14.4024
Ni(Pt3W)2,69.7184,52.6604,-17.058
Ce4CoHg2,14.8614,16.4283,1.5669
Sm3GdRu,24.0913,25.8843,1.793
ZnTeMo,24.8963,22.8357,-2.0605
Zn2NiBr6,9.4751,10.0679,0.5928
GdHfRu2,50.8641,43.0525,-7.8117
Pr2InSe3,24.5894,20.832,-3.7574
CuReAs2,17.0052,20.0012,2.9961
Ba2ErScO5,22.0452,22.1706,0.1254
ErMgIn,16.945,19.1788,2.2338
GdSc2Rh,21.6769,20.8468,-0.8301
Sc3ZnAu,14.1857,15.6584,1.4728
AcTi(PtO4)2,20.2146,16.7255,-3.489
CuRe2As,24.8713,28.559,3.6878
Ac4Pt3,68.2723,59.1333,-9.1391
Ac5LaPt5,73.6285,59.8388,-13.7898
Li5Se4,20.9932,17.5379,-3.4552
Sc2CdGa2,4.2771,7.6148,3.3378
Ba2PrScO5,21.9142,19.9311,-1.9831
Cu2ReAs2,9.3376,12.0382,2.7006
Co(Sn2Hg)2,12.7577,14.2071,1.4493
Ba2ScPbO5,26.3011,24.9215,-1.3796
Ba2TmScO5,22.1836,22.3152,0.1317
InGeTeW2,31.6712,32.4354,0.7642
CaNpPt2,62.8669,50.5509,-12.316
BeP2Pb,16.9527,16.6702,-0.2826
TlSnHg2,16.1499,17.3715,1.2216
LaW2,26.6998,28.4032,1.7035
VPPtS2,68.2213,53.0668,-15.1545
SrTaBe2Ag,27.2709,19.8707,-7.4002
Y3TmPt,25.4119,22.5336,-2.8784
Ba6IrO2,0.0,1.2247,1.2247
Ba6AuO2,0.2428,1.064,0.8212
Co(SnHg)2,7.1892,8.7046,1.5154
BePPb,19.837,21.3643,1.5273
Nd4YHo3Se8,34.6546,31.1425,-3.5121
Al4InSb,12.969,12.6965,-0.2725
LiThNiAg,25.9676,26.159,0.1914
Nd2Y3HoSe6,32.2548,28.7458,-3.509
BeP2Pb,16.3672,16.6702,0.303
Ac2PtBr2,47.9081,43.7042,-4.2039
Hf2Ga4Au,52.4158,41.0119,-11.4039
LaCr2Mo,15.9443,15.06,-0.8843
CoIr4,27.9412,33.8937,5.9525
CaPrSe2,37.9553,31.1856,-6.7697
AlZn2Re,25.7349,19.7269,-6.008
HfSiPt,73.7676,58.7604,-15.0073
AlZnRe2,33.8149,30.2063,-3.6086
CaLaSe2,51.9104,40.4244,-11.486
SrCaSe2,43.5869,35.9611,-7.6259
CoNiPCl2,21.4753,15.8634,-5.6119
GaRe2P,35.5939,32.726,-2.8679
Sr4CaAc3Te8,35.6627,35.2049,-0.4578
Tl2ZnOs,38.6047,40.0739,1.4693
PuThNiAg,43.9229,44.8031,0.8801
CaLa3(PrTe2)4,28.928,25.0211,-3.9069
Y3TaCo,47.7137,38.3923,-9.3214
NaNd2FeO5,6.837,7.3158,0.4789
In3GaRh3,30.3473,24.8122,-5.5351
Cd2InBi,26.2009,27.8226,1.6217
Ca2Ac2Pt,45.2739,40.7689,-4.505
Mn2PbSe2,63.7681,51.1264,-12.6417
LuThRu4,27.0469,30.78,3.7331
SiTc3Pd,64.648,52.3223,-12.3258
Zr2AuCl,61.6602,54.0397,-7.6205
Pd3Pb,26.2216,28.56,2.3384
TaGaRuRh2,58.2902,43.564,-14.7261
AcTlPt,63.043,56.8139,-6.2291
CrNi2OsPb,32.621,32.0973,-0.5237
Ac2ThSi3Pt4,58.7764,46.7297,-12.0466
ReAg2Pt,48.5513,39.0762,-9.4751
TaInBiRu2,30.7833,32.6001,1.8169
TmSc2Au,21.6651,24.453,2.7879
EuYHoAl,33.4919,30.1053,-3.3866
Ba2InAg4Ge3,17.0166,14.642,-2.3746
LiRe2Tc,43.5666,42.6358,-0.9308
CaAcEu2,31.5683,33.3396,1.7713
SiSbPt3,65.6845,45.8868,-19.7977
NdPuAgIr,42.6001,43.6329,1.0329
K2TcICl6,15.4697,13.9751,-1.4946
CaAcEu2,31.6739,33.3396,1.6657
CaAcEu2,31.537,33.3396,1.8027
Re2AsOs,33.1488,37.9953,4.8465
ScNiRh3,33.1856,24.1485,-9.037
ReAs2Os,26.1783,29.1025,2.9242
TcTe2Cl,45.9682,40.5524,-5.4158
Cs12Ag3O5,10.447,10.7787,0.3317
YLuCoNi,57.4183,51.0755,-6.3428
ReAsOs,31.2795,36.7978,5.5183
Re2AsW,33.1879,37.1414,3.9534
Y2TaPbBr,46.2733,38.3645,-7.9088
Re2AsW,33.3888,37.1414,3.7526
Ta5OsRu4,28.7104,33.8063,5.096
Ba2NdSn3Pd4,18.5845,16.7089,-1.8756
ReAsW,30.9561,35.4801,4.524
Ba3GaSn3,7.2157,8.9121,1.6964
Ga(SnAu)3,26.6105,27.4177,0.8072
Na2In2Ga,17.1305,16.157,-0.9735
TaCuPt2,56.2763,44.3071,-11.9691
Te2PtPbI,49.9334,43.5634,-6.37
Na3In(PO4)2,0.0,0.0,0.0
Cr3PdW,18.299,18.2594,-0.0396
SrMnTc2Pb,71.1731,59.8938,-11.2793
Cr2PdRh2,19.0109,15.476,-3.5349
CaTbCeTm,22.0394,24.6749,2.6355
Li5Si4,16.2378,12.956,-3.2818
CeTmBi,30.8173,34.7691,3.9518
GdTmRh,35.7621,33.3622,-2.3998
Ta2OsRu,33.5185,37.915,4.3964
Np(MnSi)3,51.7665,39.6687,-12.0978
YZr2Ru,53.0439,45.8179,-7.2259
EuPb,39.8939,42.1934,2.2995
LaY2Pt,41.8182,32.3323,-9.486
CaSnSb2,25.9385,21.3554,-4.5831
NaPrPAu,16.9868,17.7833,0.7965
Ti10O13,0.0264,1.9972,1.9709
TaOs2Ru,34.2756,39.1785,4.9029
LiY3Co,25.0222,21.4522,-3.57
Tc2SbTe,68.3895,57.7222,-10.6673
Ti3Ni2,0.0,0.0,0.0
Mn(CrFe)2,32.9503,24.0055,-8.9448
Cs3NaI,23.5315,22.5849,-0.9466
Ta2OsRu,32.7439,37.915,5.171
ScCu2Rh,26.86,21.378,-5.482
Nb2TeC,87.5833,73.891,-13.6923
TlCu2Pt,38.5618,32.793,-5.7688
Ce3GaRu3,11.5165,15.8235,4.307
Tl2CuPt,49.7056,43.5579,-6.1477
YMgBiAu,30.0942,31.15,1.0558
SrAc2Eu,42.7751,44.2275,1.4524
NbTl(IO4)2,31.2599,27.3865,-3.8733
Li8Pt,10.2163,7.8015,-2.4148
SrAc2Zn3Pt4,51.6122,41.5339,-10.0783
Ba2TlCd3Ge4,14.2563,15.39,1.1337
SrTcSb3,48.2037,38.7808,-9.4229
CdSiRu2,23.2827,18.939,-4.3437
CdSiRu2,23.1398,18.939,-4.2008
Cd2SiRu,20.9523,18.2147,-2.7376
Er2TlGe2,20.2632,23.7498,3.4866
GeRhO,13.0897,10.3293,-2.7604
Ca3B2SbPd9,14.542,14.896,0.354
Zn(CdPt)2,41.2987,32.3096,-8.989
BaSi2Ru3,20.6857,15.4103,-5.2755
HfNbTe3,82.8892,66.8434,-16.0457
Li8Ta,4.8734,5.7061,0.8327
SrLiP,12.0971,9.5332,-2.5638
Cs2NaI,23.3978,22.2108,-1.1869
LiAcSi2Pt5,61.8699,45.2574,-16.6125
CrRe2Au,34.4238,37.0841,2.6603
AcIn2TeO8,16.6902,16.5997,-0.0905
TlCdBi,41.5603,42.8002,1.24
AgTe2PtI,46.7013,38.26,-8.4413
Hf2NiAu,84.8931,65.0254,-19.8677
NiSbPd2,21.1757,19.8812,-1.2945
SrSiCl6,10.7846,9.3477,-1.4369
Cs2(Tl3Cd)3,38.3449,39.3204,0.9755
Ac2(CdHg3)3,11.674,12.5699,0.8959
SbIrCl2,24.6397,24.3343,-0.3053
Cs2(CdHg3)3,6.6123,7.0783,0.466
Ac3Cd9Hg2,25.829,26.7485,0.9195
Sr2CrSb,22.0011,18.1812,-3.8198
Ba3Cd9Hg2,12.0014,12.7439,0.7425
NdTh2Re,49.4158,53.7811,4.3654
Ac2(Cd3Hg)3,19.8292,21.2846,1.4554
Ba3Cd9Pb2,19.5642,20.4326,0.8684
Cs2(Cd3Au)3,24.328,25.2472,0.9192
Ca2InW,17.727,20.0171,2.29
Nd3CuAg3,24.7378,22.7292,-2.0086
Ce2ZnGe2,9.5241,13.3193,3.7952
SmPb,38.403,42.0765,3.6735
Th3CuAu3,49.0119,51.5094,2.4976
Y2SnIr,26.6969,26.5292,-0.1677
NbTeAuI,59.2498,53.9918,-5.258
GeW2Cl,17.0173,22.3563,5.3391
NbGaTe3,55.3672,48.4984,-6.8688
YCo2Si,29.0078,23.754,-5.2538
La2SiRhBr,35.5186,24.4237,-11.0949
BeZnRe2,33.4587,28.4965,-4.9622
Be2InP,6.9697,7.5161,0.5464
Ba2SrCa,6.72,6.167,-0.5531
CdFePb2,33.9985,33.5688,-0.4297
SrCaHg2,4.0655,4.1211,0.0556
Er(TmBi)5,40.8446,42.3072,1.4626
NdScPdRh,27.5532,24.333,-3.2202
YCoSi2,10.2204,7.2753,-2.9452
CaTb2Ho,17.9118,21.4778,3.566
La2Ho2Zn,33.3973,28.4631,-4.9342
Ba2Sn4PtRh3,31.3479,24.8423,-6.5057
CrCdRe3,54.4661,46.5952,-7.8709
CaBeCu3,12.7126,9.105,-3.6076
Nd2Th2Zn,37.6971,40.7906,3.0935
CuTc2Au,60.212,53.7756,-6.4364
TlTePtI2,45.6087,39.6909,-5.9178
CaNdTe2,22.3035,24.745,2.4416
Ac3In3Cu,32.8905,35.8443,2.9538
Nd3CuI3,7.9351,13.44,5.5049
BeZn2Re,30.9584,20.5901,-10.3683
Al(IrO3)2,0.0,0.8905,0.8905
La3CuI3,19.0634,16.4392,-2.6242
CaPrTe2,15.69,17.3725,1.6825
Sr2Ca7,8.462,7.9679,-0.4941
Al(PO3)2,10.742,8.1235,-2.6185
CaPmTe2,22.3535,24.7592,2.4057
Ac2Ni3P4Pt,29.7596,26.7193,-3.0403
UGaNi,27.5202,20.3775,-7.1427
BeZnRe2,33.229,28.4965,-4.7325
Ac2TbSb3Pt4,63.8479,50.5085,-13.3394
LaPm,23.7551,28.0469,4.2918
Tb(CdH4)2,6.1371,7.6351,1.498
LaPb,36.7663,34.1696,-2.5967
CaSm2Y,17.9399,17.7626,-0.1773
Ti4Pd,0.0119,4.0453,4.0334
ZnTcSe,49.5265,41.6887,-7.8377
VNi2RhO6,19.6309,15.9651,-3.6658
Sm(DyS2)2,22.6541,19.3155,-3.3386
In3CuPd3,16.7505,18.5626,1.8121
TbCd(H3Pt2)2,33.456,24.8093,-8.6468
LiEr3,22.346,24.1009,1.755
LiI,4.6266,9.7694,5.1428
NpMn2V,99.712,82.2139,-17.4981
LiSi8,15.9862,9.6857,-6.3005
NaAgSbPt,47.4016,35.6809,-11.7207
Te3PtI,48.1165,40.8507,-7.2658
Sr2AcPt2,48.4705,39.0766,-9.3939
ZrNiBr,38.8324,35.053,-3.7794
Th3Tc,64.3301,65.3267,0.9967
CaHf3I,93.6962,67.1136,-26.5827
Sr(AcPt)2,58.0705,48.9708,-9.0997
Ca2LaIr,33.4741,24.493,-8.9812
Co2Rh7,39.5885,28.802,-10.7865
Tb2ErTc,44.1308,42.3121,-1.8187
LaSiRh2,40.6774,28.5448,-12.1326
Y3RuAu2,27.7219,27.47,-0.2518
HfCrFe2Sb,57.6659,41.6034,-16.0625
TcPd3,36.5473,35.3174,-1.2299
PaNi2Sn,30.8505,29.6242,-1.2263
GdGaNi4,12.5913,12.7528,0.1616
LiY2P,21.2214,17.3179,-3.9035
La2Ce2Ge4Pd,22.5588,20.012,-2.5468
Pr8GaRu3Cl4,29.1458,24.0688,-5.077
PaTe3,42.2097,42.0779,-0.1318
NaMgAs,11.6419,10.135,-1.5069
YZr5Ru6,51.1159,44.0756,-7.0404
GdEr2Tl,34.555,37.1545,2.5995
LiZr2P,55.0851,44.5554,-10.5297
CsTl4In2Sn,35.9694,36.6999,0.7305
Gd2GaNi,19.1393,20.47,1.3307
Pr2P3(HPt2)2,31.9422,22.6922,-9.2499
Tb4HfCo19As12,22.2793,16.698,-5.5813
CuTc2Os,58.72,52.7454,-5.9747
TlSi2NiRh,27.5099,22.4206,-5.0893
Tl(CuGe)2,13.1249,15.3949,2.2701
Pm2ZnRh2,30.3731,25.888,-4.4851
AcEuTm2,38.6382,40.4595,1.8213
Pm3ErBi4,39.3727,41.5266,2.1539
Cu4PH5,6.0572,4.9974,-1.0598
ReNiPb,59.7125,46.2033,-13.5092
Nd3CuSn3,27.6295,28.4341,0.8046
InCoSn2Sb,23.4723,21.5542,-1.9181
CuTc2Os,58.735,52.7454,-5.9896
InSi2As,25.5842,21.5398,-4.0444
InSi2As,25.5109,21.5398,-3.9711
CsInGe2Mo,17.7701,18.416,0.6459
KAgW2,58.9117,49.3429,-9.5688
TaTePtI2,43.7722,37.6656,-6.1066
TbGaPb,28.8122,31.1824,2.3702
Re2TcAg,43.6071,43.2977,-0.3094
ZnReSi,36.0727,25.9261,-10.1465
Tb2Ga4AgAu3,25.4603,26.0318,0.5716
Tb2DyS4,35.4957,31.673,-3.8226
K2ZnH4,-0.0,-0.0,0.0
Re2Tc2Ag,50.2888,47.8426,-2.4462
TbCdH6Ru,6.7932,7.6611,0.8679
ReTcAg2,49.4894,43.1427,-6.3467
IrOsAu2,45.2229,48.5088,3.286
BaCuOs2,17.7921,21.1529,3.3608
YZrAu2,45.7969,45.4784,-0.3186
Y2ZrAu,43.1293,42.1709,-0.9585
Sr3CuPt3,39.8533,31.9905,-7.8628
Tm3CuAu3,33.6529,35.6204,1.9675
AlAsCl,17.6552,17.3945,-0.2606
NpIrOs,40.8402,47.3513,6.5111
BaCoRe,24.6729,20.5419,-4.131
Mg2Ru,0.0,4.5544,4.5544
ReOsRh3,47.7731,39.4012,-8.372
LiPtAu2,45.9143,40.3983,-5.516
Cs2Ba2PaO6,9.1168,10.1646,1.0478
PrSmBiAu,31.2916,32.4599,1.1683
YZrAu2,51.1621,45.4784,-5.6837
AlSb2(PbAu2)3,44.4586,43.4211,-1.0376
YZr2Au,64.2683,57.7399,-6.5284
PuPd7Pt2,37.7548,33.4129,-4.342
Zr2ScCrGe,54.2148,42.5518,-11.663
YHoSiNi,51.7286,45.4127,-6.3159
NbTePdI2,50.2343,44.5761,-5.6582
TbSI,34.0106,30.36,-3.6506
TlCuTc2,61.3872,54.4598,-6.9274
CoSbTe2P,34.7771,28.1653,-6.6118
Al2ReTc,37.119,33.3551,-3.7639
Ca2LaRe,26.1074,23.4057,-2.7017
TbCeGdSc,21.6209,24.6121,2.9911
Ac2Sn3GePt4,54.9725,44.8282,-10.1444
Ca3Tl2BRh3,35.3205,31.808,-3.5125
AlReTc2,58.2222,51.5412,-6.681
AlRe2Tc,45.048,44.4116,-0.6365
AlReTc2,58.5994,51.5412,-7.0582
La8Pt3BrCl4,43.1831,28.9325,-14.2506
AlReTc2,58.8663,51.5412,-7.325
AcGePdPt,38.5865,34.6072,-3.9792
Al2GaRe,8.8009,13.9787,5.1778
Hf(SiRu)2,37.3681,26.7812,-10.587
PmYTmPu,35.5316,38.3842,2.8527
AcP2,17.6783,20.7506,3.0723
SrInPd2,12.312,15.6884,3.3764
Al2TlRe,24.6081,28.0036,3.3954
Li3Y2TiS6,35.3608,26.3338,-9.027
AlTl3Re,40.5116,41.4105,0.8989
AlTlRe,31.9402,34.3836,2.4434
YNbO2,56.1358,49.1877,-6.948
OsAuBr2,28.8121,30.6146,1.8025
Ba2ScCdO5,23.533,21.1237,-2.4093
Sr2ScCoO5,23.8786,22.648,-1.2306
Li2Pm3(AgPb2)2,31.3541,31.2595,-0.0946
ZnInTc,40.3675,36.0584,-4.3091
Na2Cr4Pb,21.2324,20.4676,-0.7647
Al2TlRe,24.8256,28.0036,3.178
NaNiI,18.1582,15.7223,-2.436
Tl2ReO6,17.2936,18.8715,1.578
Na2CrPb,28.3161,27.4736,-0.8425
LiYNp2S5,39.6023,33.3919,-6.2103
TaMn2Se,71.0478,57.7308,-13.3171
Y6HoEr3Tm2,21.7592,23.3751,1.616
TbAlGaAg,17.0026,17.2227,0.2202
Be2ReCl,12.2102,13.643,1.4328
Ga2BiP,22.9098,22.6463,-0.2636
TaMn2Se,71.2259,57.7308,-13.4952
ThSbAu2,50.7987,50.8737,0.075
DyErScAl,16.8464,19.1737,2.3273
NbTePt3,91.4453,68.9328,-22.5125
CaTlSeClO,38.0474,35.6082,-2.4393
TaIn2Sb,26.1563,30.2582,4.1019
AcNiGePt3,54.5057,41.4009,-13.1047
Ac2Ni3Ge4Pt,32.0977,26.7437,-5.354
Mg4Zn2Cu3,11.8477,8.9536,-2.8941
Ba2ScPdO5,28.6344,24.7508,-3.8837
HfSiRu,34.2747,23.1636,-11.1112
HfSiRu,35.2559,23.1636,-12.0923
Y2Ho2ErTm4,26.3505,28.525,2.1745
Te2IrCl,33.2824,33.2602,-0.0222
Ac3GaGe2Pt9,67.6974,51.4748,-16.2227
SrSiBr2,23.3734,17.2653,-6.108
Tl3B2Pd9,22.1612,23.4783,1.3171
KYCl2,42.8062,40.1862,-2.62
Nb2TeOsI,79.1873,68.5524,-10.6349
PtAuBr2,41.448,34.7762,-6.6719
Al(OsC)2,35.1157,30.8674,-4.2482
NiAs2,17.2762,13.8469,-3.4293
Pt2AuBr,60.7314,47.0839,-13.6475
Tl3Pd(SeO4)2,22.9788,20.9855,-1.9934
PbI,35.3007,32.3087,-2.992
YHfRh2,63.0519,46.9744,-16.0776
ReAgHg2,18.5646,17.6973,-0.8673
TiGaP2S,23.4125,21.7033,-1.7093
AcAlPt2,54.4623,49.3114,-5.151
TbSc2(GaCu)2,27.0986,23.2731,-3.8255
Tb2AlGa4Au3,22.5782,24.1171,1.5389
AcSiGePt3,52.4856,40.5505,-11.9351
Ca2YCo,27.286,22.7204,-4.5655
NbTePdI2,49.9786,44.5761,-5.4025
ZrNiBr,39.0622,35.053,-4.0092
SrIn2Pd5,17.2716,19.0905,1.8189
YHo2AlC,38.5191,31.0997,-7.4194
Ac3InGe2Pt9,68.48,52.3176,-16.1624
Cs2PAuI,25.3686,24.7664,-0.6021
In3HgPb3,28.3053,29.5063,1.201
TlIr2Ru,43.5374,42.6365,-0.9009
Y2Bi4P,43.6082,41.3382,-2.27
K(TlAs)3,24.4842,26.2209,1.7368
HfFe2Pb,47.6238,37.4473,-10.1765
PuNiSb2,39.6975,34.0694,-5.6282
Tl2IrRu,45.3636,43.3735,-1.9901
HfTlIr2,70.139,62.669,-7.47
BeAlAs2,22.4021,15.5494,-6.8527
Tl2CdAg,36.2366,35.6749,-0.5617
LuAgBi2,39.0744,39.6802,0.6058
BaRuSe,21.5708,21.0954,-0.4754
TlIr2Ru,43.1756,42.6365,-0.5391
Ba2SrScO5,21.4728,20.055,-1.4178
BaReAg2,38.2912,28.8537,-9.4375
BaRe2Ag,40.5258,33.6498,-6.8759
K3Hg3Au,10.1498,10.3955,0.2457
BaReAg3,36.9398,27.4168,-9.523
NdSmYHo2,19.7603,22.6113,2.851
Cs2SiSBr6,18.1488,16.0036,-2.1452
LaAl4Mo,16.351,13.3837,-2.9672
HfTeIr,68.1411,40.7474,-27.3937
CuSb2Ru,28.9037,25.4132,-3.4905
Tb2Zn(GaNi4)3,8.7591,10.1132,1.3541
K2BaBr2,8.023,7.033,-0.99
TbTm2(TlTe2)3,40.0555,40.0813,0.0258
BeAlAs2,22.0824,15.5494,-6.533
AlTcP,47.1735,39.6357,-7.5378
Li3ErSe3,19.1202,16.0004,-3.1198
Zn(PdAu)2,27.3328,29.3227,1.9899
Ac3Ge2Pt6Au,65.5488,52.255,-13.2938
Y2TiGa,28.0363,23.3727,-4.6636
SrCa2La,20.5981,16.2911,-4.3069
AlTcP,54.043,39.6357,-14.4072
Ac2ZnSn2,30.9364,34.3016,3.3652
La4Os2N,53.2815,40.0225,-13.259
Y6MgCo,22.1885,19.5347,-2.6538
CuTe2Ru,27.6959,27.4084,-0.2875
BaBe2Mo,9.9411,7.4124,-2.5288
CaErIr2,37.2618,34.1693,-3.0926
BaBeMo2,13.4935,11.2328,-2.2608
Ba2BeMo,8.6853,7.3793,-1.3061
Ac2Pa(PtO4)3,24.6792,22.5131,-2.1661
AlIn3Re,21.9092,22.9097,1.0005
AlInRe2,26.0951,29.425,3.3299
LiMnCr,37.2527,29.309,-7.9437
CaCrRu,24.0572,20.1395,-3.9177
AcNd(ThPt2)2,71.2762,59.2652,-12.011
Y2HoTmP4,24.8651,21.3649,-3.5002
Ca3ZnN3,14.7341,13.1465,-1.5875
Y2(BeAu3)3,29.7059,29.9093,0.2033
Ba3Br3N,0.0,0.0,0.0
Ca(AcPt)3,60.123,49.3012,-10.8218
Al4MoPb,16.7974,16.7798,-0.0176
ZrCr2Cd,34.2608,29.9637,-4.2971
Ho2(BeAu3)3,30.007,32.2248,2.2177
Nd2(BeAu3)3,29.534,31.7324,2.1984
Ac8SnIr3Cl4,41.5899,42.7922,1.2023
AcSmCu,32.2476,34.5693,2.3216
CrRe3Tc,46.733,44.3685,-2.3645
NdYHo2N4,24.4399,24.4937,0.0538
LiMoRh,21.6545,18.9129,-2.7416
Np(ZnIr)2,40.937,36.9564,-3.9806
CdNi8,12.9192,10.794,-2.1252
TaTlSe2,46.2138,41.9186,-4.2953
Pm2SbP,23.6413,23.706,0.0648
LiAcInPt,44.2131,38.3476,-5.8655
SrNb3Te,97.1515,81.0756,-16.0759
CaGd2In,20.7176,23.2425,2.5249
CuRe3W,35.4824,37.8926,2.4101
Nb3SnC2,84.7634,71.0737,-13.6898
CaPm2(NdSm)2,22.0371,23.68,1.6429
Y3Er12Cd5,14.9997,17.3109,2.3112
GdErAu,34.772,37.7015,2.9295
Ce3GdMn,40.8376,37.4964,-3.3413
Tb4CePr10,5.8727,7.3864,1.5137
CaZrCu3,26.8912,22.4539,-4.4374
CuReW2,22.2321,31.1178,8.8857
NpBe5Au7,30.753,32.3077,1.5547
CaCd7Rh5,29.4167,24.384,-5.0327
Sr2YMgAu6,32.9661,33.4429,0.4768
Zr2InAg2,55.6816,46.5925,-9.0891
Ca2MnRe,38.1717,33.8361,-4.3357
Zr2Hg2Au,48.4965,42.7522,-5.7443
CuRe2W,31.5792,37.9459,6.3668
Ca2MnRh,39.7271,30.8362,-8.8909
TaAlIn3,20.6769,21.9621,1.2851
Tm2TcMo3,33.2498,33.3555,0.1057
Tm2Mo3Os,31.4413,28.1708,-3.2705
Ta2AlIn,24.1256,28.0935,3.9679
Nd2YHo4,20.7775,23.1523,2.3748
Ta2AlIn,24.3807,28.0935,3.7128
TaZnSe2,35.4197,32.4689,-2.9508
SrCaPmLu,21.1393,21.5953,0.456
Ta3AlIn,28.6756,30.9615,2.2859
ReAgMo2,28.8749,27.9844,-0.8905
TaNbTeI2,54.3456,48.4783,-5.8673
CuRuW2,34.9046,29.2114,-5.6932
Ce2Re3Mo,32.908,34.527,1.619
ReAgMo2,29.0014,27.9844,-1.017
Er2Ni12P3Pd,17.0484,15.3423,-1.7061
Er2Cu(Ni4P)3,16.3936,14.8631,-1.5304
Sr2Ag2Rh,24.7788,19.3818,-5.397