Formula,E_hull_DFT (eV/atom),E_hull_ML (eV/atom),Delta (ML - DFT)
LiTiAu2,27.1308,25.6553,-1.4755
KCuC3,42.7156,30.1954,-12.5202
Cr2Rh6W,39.0622,29.7281,-9.3342
Li(TiAu)2,25.7465,20.5058,-5.2407
LiCuAu2,25.1648,26.7088,1.544
Ce2InSb,28.1173,28.1139,-0.0034
SmLu2Ru,26.7578,30.7931,4.0354
Os2PtBr,47.6951,43.6493,-4.0459
OsPtBr3,36.0822,30.4622,-5.62
AuBr2,23.8129,25.086,1.2731
OsPt2Br,59.4872,46.5258,-12.9615
ZnTc3,63.5618,55.922,-7.6398
CdRe,76.0926,68.039,-8.0536
UAl2Tc,44.4778,41.6765,-2.8013
NbCrNO2,37.4318,30.9867,-6.4451
Mn4FeAg,73.8999,59.9283,-13.9716
LuSb2,35.7225,32.3678,-3.3547
RbSc2SnI,17.9716,15.0599,-2.9117
U2AlTc,59.7706,58.6307,-1.1399
AcSmThSn,43.9737,47.3439,3.3702
Na2Mn4Cd,69.2386,58.597,-10.6417
Sn2Mo2Pb,44.3036,35.9002,-8.4034
CaSm2Sb,26.0098,23.9278,-2.0821
SrLaV2,76.7243,60.1889,-16.5354
Li2PtW,32.2933,27.192,-5.1014
Cd(CuPt3)2,57.9821,40.1669,-17.8152
K2Ni2P,11.7476,10.2895,-1.4581
Ba2CrI6,13.1648,13.8059,0.6411
Tb2Y5Ho2,19.8907,23.3046,3.4139
Ba2AgPPd,15.2157,13.0043,-2.2114
Mg(ZrH3)2,22.977,18.5469,-4.4301
SbTe2PbN,37.5391,34.2435,-3.2957
YZr2Pt,74.6464,57.7901,-16.8564
Hf2GeSb,84.8748,63.5956,-21.2792
Ac2PrPt,47.5551,43.422,-4.1332
Ga2AgRu2,12.2675,13.0321,0.7646
HfGe2Sb,52.0235,40.6605,-11.363
CsGaAu,26.457,27.6491,1.1921
NaAuBr4,16.5653,17.0721,0.5068
Mn2CrI6,38.0363,33.4653,-4.571
K(SiPd)3,11.0366,8.5272,-2.5094
NbPdSe2,63.739,53.682,-10.0571
Zr4AgOs,77.5476,64.3809,-13.1667
ScSnSb2N,31.7209,25.1291,-6.5919
Li2BeIn,7.4002,6.6301,-0.7701
SmYAgSe3,29.0195,25.8254,-3.1941
MoW3(SeS3)2,46.5541,39.3404,-7.2137
LaSc2PdN,22.6027,17.725,-4.8776
Ni2SbIr,30.011,28.4347,-1.5763
Sc(TiCd)2,11.6117,13.0683,1.4567
Ba2PPd2,8.1453,8.5895,0.4441
Nd3FeSb,31.4814,29.6826,-1.7988
Zr4PaCd,80.095,66.9218,-13.1732
BeCuAs,7.0831,6.9359,-0.1472
TlVSn3,48.4925,43.2664,-5.2261
HfNbN2O,56.8729,44.2606,-12.6123
AlCdSe2,29.359,24.778,-4.581
GaSbOs2,28.1306,29.6526,1.522
Y3GaSi2Ni9,37.9903,32.9038,-5.0865
La2AgSb,44.7301,32.6201,-12.11
LuSi2Ru,15.3983,13.1522,-2.246
Sc2TcGeN,61.6958,50.1307,-11.5651
SrSc2CuN,19.5093,16.7455,-2.7637
Sm(DyPb)4,33.6477,36.0951,2.4475
SmYAgBi,30.7485,31.7607,1.0121
Tb2Mn4AlFeB2,39.2164,33.7727,-5.4436
Tb13Y3O24,12.4425,13.4263,0.9838
Al2CdPb2,23.2546,24.9071,1.6525
BPbC2,57.3092,45.9912,-11.318
Zr4CdPb,77.3932,64.0299,-13.3633
LaTa2Se,43.9611,40.0422,-3.9188
Cr2Mo2Ru,16.0484,15.8481,-0.2002
Mn3Sb,78.1383,63.5669,-14.5713
BeNiSe2,25.6241,22.8221,-2.802
LaNdErIn,31.2163,29.239,-1.9774
Lu2SiRh,32.2163,28.8509,-3.3654
Be3NiSe,11.4209,10.3643,-1.0566
La2TaSe,40.9575,33.1198,-7.8377
K4Mo2H6S2O9,8.3381,5.5611,-2.777
Lu2SiRh,32.2532,28.8509,-3.4023
IrPtBr2,41.6423,36.7016,-4.9407
Sr2Zn2Ag,12.6261,12.7051,0.0789
InSi2Pb,26.0797,23.0788,-3.0009
LuSi2Ru,15.5033,13.1522,-2.3511
Ta2InF2,38.4249,33.7892,-4.6358
Cr2NiPt6,66.8513,47.3579,-19.4933
PmSmNiGe,20.3222,20.4111,0.0889
TaCuSe2,36.1945,32.0414,-4.1532
Sr2YAgSe4,32.9324,26.8059,-6.1265
AcPr(H3Pt)2,18.72,13.5456,-5.1744
Ga4Pd9Au2,21.6055,21.9109,0.3054
Cu2AsBr6,12.8271,12.1285,-0.6986
BeGeTe2,19.684,20.6546,0.9706
VCdSi3,40.1013,29.5753,-10.526
LiIrW3,33.0845,37.0354,3.9509
Mn2AgGe2,43.7841,36.6596,-7.1246
NdTh2Sc,40.528,44.6249,4.0969
Zr4InPb,77.4061,64.7885,-12.6176
Zr4IrPt,78.1002,60.9894,-17.1109
ScCrAu,31.4297,29.2243,-2.2054
K(GeP)2,7.5147,8.3903,0.8756
Sm2Cu2Ni5Ge,7.0192,8.7518,1.7326
NbSeN2O,39.41,32.2947,-7.1154
Te(SBr)2,32.5071,27.0651,-5.442
LiAcZrRh,53.0189,46.0502,-6.9687
Mo2IrRu,22.1449,27.8409,5.696
Ge2BiTe,25.3029,26.5777,1.2748
SrGe2,10.5582,13.2777,2.7195
LaZrCo2,40.4488,33.0233,-7.4256
Zr(SBr)2,40.638,30.1149,-10.5232
TcNi3C,36.9833,30.6613,-6.322
MoRhAu2,40.0676,38.0408,-2.0269
Na2Sr(InSn)2,20.2549,19.8084,-0.4465
HfMo2P,43.5955,35.9023,-7.6933
Nd2Y5Ni2,57.1158,50.5951,-6.5206
MoIrRu2,28.8846,28.039,-0.8456
In2S2Br,32.4696,26.3004,-6.1692
NdYNi3,34.2381,33.0973,-1.1409
MoIrRu2,28.5556,28.039,-0.5166
Mo2IrRu,29.6268,27.8409,-1.7858
Nd3Y3Ni4,57.6735,51.0061,-6.6674
Sb2S2Br,45.1009,35.5796,-9.5213
Ni2Pt,16.1411,13.8426,-2.2985
Li2As2Ru,5.9842,4.2887,-1.6955
Rb(BaCa)2,0.9674,2.2887,1.3213
CsAc(PPt2)2,56.0465,42.098,-13.9485
Pr6Cu2Sn,6.4433,6.3115,-0.1318
BaNaLi2Cu,9.7556,7.8848,-1.8709
Sr6CdCu2,11.414,11.8058,0.3918
NaHfSc,43.474,31.3668,-12.1072
Tb6Cu2Pb,20.2004,22.9747,2.7743
Sr6InCu2,10.0856,11.9461,1.8605
La6Cu2Tc,40.8175,28.1898,-12.6276
Cu2TcI6,23.8237,23.4494,-0.3743
Tl6Au,50.9046,51.4163,0.5117
Tb6Cu2Os,18.2924,21.6388,3.3464
Tm6Cu2Tc,26.9123,27.9615,1.0492
Ca2YW,26.2588,20.551,-5.7078
Cu2Te6Au,31.5033,30.6166,-0.8867
Nd6Cu2Sn,25.2792,26.1291,0.8499
NaHfSc,59.2365,31.3668,-27.8697
Ge2Bi2Te,34.1883,34.6922,0.5039
Li2Y(AlAg)2,21.98,17.4527,-4.5273
AlPbSeN2,21.6563,20.6049,-1.0514
Ca2YW,26.2407,20.551,-5.6897
Nd3Y6TmTh2,26.6675,28.3043,1.6368
Cu3PC,21.1925,16.5687,-4.6238
Ac2ThCu6,26.0083,28.0543,2.046
MnNiP2Pb,53.7961,48.4172,-5.3788
ReAu3I,42.9014,43.4199,0.5185
Sb2TeAu2,41.9691,38.4386,-3.5305
SbAsOs2,35.1593,35.379,0.2197
SmNpAs,26.1259,31.4244,5.2985
AcPm(H3Pt)2,21.6807,16.5268,-5.1539
Pa4SiIrSe2,52.1175,51.5575,-0.5599
GaNiOs,5.8599,13.3044,7.4445
Y2ZnSi3Ir4,38.152,34.9098,-3.2422
Li2PtW,32.3714,27.192,-5.1794
VFeSiIr,47.3995,40.4469,-6.9526
SnSbOsN2,47.4647,38.3711,-9.0936
CaYW2,34.4632,26.4235,-8.0397
Ce2TmCu6,13.2634,15.1347,1.8713
CsYCo2Ag,33.623,28.1212,-5.5018
Li2PtW,32.3621,27.192,-5.1701
La2TbCu6,18.7128,15.9853,-2.7275
Nb2OsN,101.8678,85.2143,-16.6535
CaY3W,30.8453,21.7924,-9.0529
CoSb,0.0,0.0,0.0
NaLuSn,26.1679,26.4794,0.3115
GaNiOs,11.9541,13.3044,1.3503
SmDy5Pb4,36.9825,38.8363,1.8538
TlPt2Br,61.1973,47.0033,-14.1941
Rb3TaSe,18.8688,16.5009,-2.3679
AcGdGePd,29.5332,32.8071,3.2739
SmDyPb2,38.9926,41.905,2.9124
AlRh2N,19.007,15.0145,-3.9925
CaTm2VO6,26.083,23.7811,-2.3019
GeBiTe2,37.1506,37.3857,0.2351
CaEr2VO6,25.843,23.488,-2.355
Sr2TlCuN,21.4764,18.749,-2.7274
CaDy2VO6,25.4684,23.0869,-2.3815
Ag2TeOs,37.3477,36.0902,-1.2575
InGeSbN2,16.4889,14.8503,-1.6386
ReIrRh,44.5554,43.786,-0.7694
Ag2TeOs,37.08,36.0902,-0.9897
Y2ScI,8.8681,12.8563,3.9882
SrLi3V,29.3347,23.7696,-5.5651
CaYW,33.1897,25.0015,-8.1883
Hf2AuI2,76.4077,59.4781,-16.9296
Li2TlW,23.146,24.8687,1.7227
La(CeCu3)2,15.6223,15.3887,-0.2336
Y2Si3TcIr4,52.9934,47.7302,-5.2631
RbSc3Si,21.6308,18.4176,-3.2131
RbSc2Si,20.0389,17.2632,-2.7757
Sn3RuAu,26.2191,27.2586,1.0395
Cu2SiRu2,11.4095,10.1853,-1.2242
CaYW2,34.7105,26.4235,-8.287
NaSrV,55.1649,43.4088,-11.7562
NaSrV,56.6455,43.4088,-13.2367
Sc3Te,9.5496,10.5243,0.9746
SbRuPb2,41.8797,41.1964,-0.6833
NbINO2,48.6432,39.595,-9.0482
LaPrNdLu,26.3851,24.4511,-1.934
RbZnIn4,12.5622,13.4499,0.8878
TcAsW2,46.0516,45.2647,-0.7868
HfTiP2,37.8333,30.2015,-7.6318
Ac2CdSn3Pt4,56.0062,45.0536,-10.9526
Nd(TmCu3)2,13.8106,15.8716,2.061
ScWN2F,12.0717,12.3286,0.2569
Ho2GaPb,28.9173,31.8229,2.9056
K2LaMo,23.9549,19.2863,-4.6686
Y2Ho2Rh3,32.2919,28.9954,-3.2965
TaSiRu2,18.8199,24.4354,5.6155
HfTlCu,51.082,41.8529,-9.2291
Li2IrSe,22.9219,22.4641,-0.4578
Hf3TiP,89.0132,64.1272,-24.886
Er4IrPd2,27.2717,31.0927,3.8209
La2NdLu,40.4911,33.533,-6.9581
SrMg(H4Pd)2,7.7187,8.159,0.4403
ZrCo2Sb,40.0889,33.5451,-6.5438
PPbSe2N,43.7172,36.2952,-7.422
CaCu2Os,13.0674,14.3767,1.3093
ScFeSe2N,36.9391,30.7255,-6.2136
Cu2PSe,20.9564,18.3198,-2.6367
AlPbS2N,35.0712,28.8431,-6.2281
CaCuOs2,26.3929,27.1645,0.7716
YAuBr2,15.7604,19.304,3.5436
Hf(BiAu)2,64.6268,58.0711,-6.5557
AlZnPb2,29.1682,30.3376,1.1694
Nb3PtI,108.5582,85.6094,-22.9488
AlZnPb2,29.1728,30.3376,1.1648
AcGa2NiPt4,55.0219,41.5135,-13.5084
AlZn2Pb,17.8639,19.0171,1.1532
Al2ZnPb2,20.8891,22.4313,1.5421
Hf2BiAu,97.2395,77.911,-19.3285
Ac(SmCu3)2,17.0218,19.0704,2.0486
AcAsAuF,25.7249,28.7488,3.0239
Ac3Cd2(SiPt2)2,55.5006,44.6743,-10.8263
TlMoOs2,34.0752,36.9686,2.8934
NaTcPt3,78.8258,56.499,-22.3268
TcMoPt2,71.5924,56.0097,-15.5827
LaNbSeN2,49.5452,38.9632,-10.5821
ReMo2P,29.7264,27.952,-1.7744
Ac2Nb(SiN3)2,26.7735,25.2599,-1.5136
CrMoRu2,15.7416,17.0659,1.3243
Ac2Cu2PtO6,20.0217,19.4058,-0.6159
Tb6Pm2Th3,37.187,40.161,2.974
Y2AgPd,22.2807,24.7404,2.4598
TcSeI2,47.7784,41.7488,-6.0296
Tm(PaCu3)2,22.7582,25.1773,2.4191
Tm(ThCu3)2,22.3732,24.8032,2.43
Zr4PdPt,74.6168,57.2376,-17.3792
SiTeI2N,22.378,19.5939,-2.7841
CrCu3Ru,13.1736,11.2032,-1.9703
NaZrSc,37.8703,30.9203,-6.95
Nd(SCl)2,22.9861,17.2427,-5.7434
Ac3In(SnPd4)2,29.3901,29.2611,-0.129
Y2ZnMoN,41.837,31.4298,-10.4072
La2GdZr,57.8547,45.3283,-12.5264
Ba2C,20.8883,15.2707,-5.6176
LaGd2Zr,52.2765,43.5995,-8.677
Y2TmCu6,22.2115,20.2944,-1.9171
NiF,0.3741,0.0,-0.3741
BaYAgPb,48.8297,43.2461,-5.5836
ZrCo2Te,38.0949,33.6554,-4.4395
GdMoP,6.2137,5.2706,-0.9431
SrZnGa4,8.9906,9.8514,0.8607
Y3Al3Si2Ag,36.5016,28.9002,-7.6014
P2WSe,81.0985,65.3951,-15.7034
CuMoPb,41.1297,34.099,-7.0308
SrLa2Au,36.8986,31.6034,-5.2953
AcAl3Pd,17.5881,19.8122,2.2241
PWSe2,92.2661,76.0769,-16.1892
P3WSe,67.0916,53.5346,-13.557
Pr5(YHo)2,8.4138,10.3132,1.8993
Tb2TmNpAs4,22.9618,25.5178,2.556
MoRh2Au,40.3224,35.5395,-4.7829
TaAsI2,24.0381,25.2402,1.2021
K2VBr,41.3673,33.2866,-8.0807
ZrCo2W,38.7294,35.4988,-3.2306
TaTlPt3,72.183,53.8775,-18.3056
YZr2Pt,66.993,57.7901,-9.203
Hf(ZrCu3)2,42.3238,33.5921,-8.7317
Th(ZrCu3)2,33.558,30.3868,-3.1712
TaTl2Pt,57.5286,53.4154,-4.1132
Sm12Y6Er,21.8603,22.932,1.0716
YMgNi,56.7582,49.5781,-7.1801
Tm2ZrCu6,22.0305,21.5878,-0.4426
AlIr2Se,34.7015,34.6949,-0.0067
YAl6Si18(N15O)2,11.0624,8.8008,-2.2616
Ca2ZrTe,37.492,31.9441,-5.5479
NaSr2La,26.0563,21.4561,-4.6001
Zn5InP,8.9166,9.5835,0.6669
LiThCuAg,26.1454,26.9092,0.7638
CaY(ThBi2)2,47.9283,48.1676,0.2393
AcYTiN3,22.8698,23.2923,0.4225
Ni3Ir,9.2377,13.7795,4.5418
NaBi2As,35.9444,35.63,-0.3144
In2CuAg6,26.1789,22.5296,-3.6492
TbMnNi,64.4657,60.7583,-3.7073
Cu(PbBr3)2,27.4967,24.5388,-2.958
Tb2TmPa,37.9354,41.8867,3.9513
GaPdO2,31.551,29.9016,-1.6494
ReMo2P,38.5358,27.952,-10.5838
AcSi2Pt,39.2688,30.574,-8.6948
Ba2LiBe,4.7594,3.5932,-1.1662
Sc2CdW,17.4454,20.8047,3.3593
NbVNO,49.543,41.6909,-7.8521
CdPI2N,27.0697,23.527,-3.5427
ScCdW2,25.8103,29.9259,4.1156
Li4Pu2Cl9,9.516,9.7045,0.1885
Cu(MoRh3)2,42.1218,30.6389,-11.4829
Zr4RePd,74.857,63.0693,-11.7877
SmTh2MnN5,18.7182,20.7157,1.9975
NaTePt,51.6965,40.0223,-11.6742
Ac2PaInPt6,74.9277,58.3374,-16.5904
YVCr2Pd,52.8487,42.0053,-10.8434
Na2BiPb2,38.8505,38.2613,-0.5892
TaSnI2,21.89,24.5905,2.7004
Pm4Er3ThS8,42.2668,35.3204,-6.9464
Er(ZnNi2)4,8.215,10.0748,1.8598
Sm6Tl2Cu,28.5089,30.6535,2.1445
CdRe2Au,66.5084,59.766,-6.7424
ReSiOs3,37.4524,38.5669,1.1145
Bi3PPb,45.3032,45.6214,0.3183
TaIr2Pt,52.7775,49.1648,-3.6127
PdSeBr3,11.3362,12.2518,0.9156
Ta2Ge2Sb,20.3867,22.5029,2.1162
SnPPd2,12.4068,12.7559,0.3491
SiOsIN2,35.7106,28.3392,-7.3714
Sm2Ni4Ge3P,17.1677,15.3711,-1.7966
IrPtW2,52.449,49.1961,-3.2529
Th(CuI3)2,19.9601,21.6804,1.7203
TaTlW,43.7287,47.7803,4.0516
TaSn2I,26.2155,27.7659,1.5504
Ta2GeSb2,27.4792,26.7072,-0.772
Sm2ErAl6,10.61,12.5178,1.9078
Zr3Al3Sn2Os,42.5694,37.4818,-5.0876
GaPdN2,11.3703,10.8297,-0.5407
Tl2TeAs,38.6436,39.0123,0.3687
Ta2TlW,41.6012,46.6881,5.0869
CuRePt,22.8549,22.0223,-0.8325
Cu2SbSe4,35.7871,29.1872,-6.5999
Sm2NiGeO6,7.4382,7.4522,0.014
TaTlW,43.2615,47.7803,4.5188
KWC2,36.8696,30.1475,-6.7221
TlTeAs,34.5645,35.5561,0.9916
CuSb2Se,36.3153,29.4194,-6.8959
ReSbTe2,42.6854,41.1658,-1.5196
IrOsCl,31.6632,34.544,2.8808
NaCoC,28.0103,20.3995,-7.6108
Cu3SbSe,23.1362,19.5557,-3.5805
NbPtAu,85.7074,70.4895,-15.2179
BaCa2PbN,12.0956,13.526,1.4304
Y3Al3Rh2,40.6916,30.2837,-10.4079
CuRe2Pt,38.7302,35.7278,-3.0024
TaSiTe2,34.5149,32.0625,-2.4523
YAlRh,21.0828,16.6425,-4.4404
TaSiTe2,34.2367,32.0625,-2.1742
Ga3PdN,17.7201,15.2566,-2.4635
Tl3SnTe4,39.3452,38.4205,-0.9246
CuRePt,46.0545,22.0223,-24.0321
TaInN2,15.3898,17.8803,2.4905
TaInN2,13.9737,17.8803,3.9066
YAlRh2,43.057,32.6384,-10.4185
Ba2CrPb,19.7748,19.386,-0.3888
Y2HoTmH8,6.5738,7.965,1.3912
Al2RePt,33.4622,30.908,-2.5542
CdAg2Sb,31.7618,26.9099,-4.8519
CrTeAs,22.4336,20.864,-1.5696
CoReP2S,45.0493,34.7656,-10.2837
Th4ZnRu,40.794,43.3469,2.5529
CdP2Se,15.5928,16.8702,1.2774
CdAgSb,31.8912,27.5804,-4.3109
CrTeAs2,15.0594,14.1184,-0.9409
ZnAuI2N,28.7253,27.4274,-1.2979
LiAlPb,13.9214,22.263,8.3417
PrHfSb3,35.6294,25.8219,-9.8075
CrTeAs2,20.0234,14.1184,-5.905
SrAl2In,10.0475,11.3802,1.3327
Gd2GePt3,55.0341,41.79,-13.2441
HfSb3Rh,65.9803,48.2027,-17.7776
Fe2Co3Ni(BOs)2,20.2483,16.984,-3.2643
Cs2S2Cl,32.1458,26.032,-6.1138
Na2V2RhSe6,57.9233,44.3882,-13.5351
NaMgV,52.7285,41.5344,-11.1941
AcTbCoPt,46.2466,41.9784,-4.2682
YThSb2N,48.0138,42.1152,-5.8985
Ag2Br,22.3702,19.1713,-3.199
YBeCrRh2,40.3059,30.1221,-10.1838
La2Pr(NdEr)2,29.536,25.7412,-3.7948
ScGeBr3,19.5572,15.336,-4.2212
AcZn4Pt,30.5126,26.7929,-3.7198
Ac3YTe4,45.5701,45.6393,0.0692
GdGePt,41.6064,34.0993,-7.5071
Gd2GePt,38.4266,33.6211,-4.8055
YAl2Rh,31.6831,24.9208,-6.7623
InRePb2,42.2146,44.1276,1.913
Ag2TeP,24.2408,22.044,-2.1968
Zr6Co2Ag,62.4821,50.1234,-12.3587
In2RePb,33.4998,36.3653,2.8654
Sm6Co2Ge,13.6958,16.9113,3.2155
Zr6Co2Os,62.4793,51.6189,-10.8604
Zr6InCo2,61.1237,48.9795,-12.1442
TlReRh,48.1237,44.8939,-3.2298
CdIr2I,33.227,35.3463,2.1194
NiTeAs2Br,24.904,21.1917,-3.7122
Er6Co2Cu,23.1962,24.3048,1.1086
Nd6Co2Cu,20.1643,21.2563,1.0919
Zr4RhAu,73.2139,57.8177,-15.3962
NiTeAsBr2,24.1681,20.8849,-3.2832
Sr3AlGe3,12.1684,12.0433,-0.125
Be3CuIr,18.2364,16.0695,-2.1669
PrSb2Ir,32.0728,29.4596,-2.6132
BeCuIr,22.8847,23.2948,0.4101
ZnOs3Pb,40.176,41.3657,1.1897
PrSbIr2,31.6402,32.5705,0.9303
Y6P2RhS3,36.6946,31.2502,-5.4444
Ac2Sb4Pt3Rh,61.7343,47.6534,-14.0809
MgScRh2C,32.9677,23.8854,-9.0823
Pr(Sb2Ir3)2,39.4089,37.3411,-2.0679
OsPbCl,33.7207,35.2837,1.563
NaLaMn2,65.5133,54.2069,-11.3064
Li2Al2In,7.2875,6.9408,-0.3467
DyUAs,28.4824,32.3933,3.9109
Np2AgIr,53.9135,55.845,1.9315
DyThCu4,19.9776,22.2463,2.2686
OsRuPb3,44.397,45.8726,1.4756
PrSmAs2,8.7327,12.5017,3.7689
CeYHo2Er,20.3108,23.2962,2.9854
Os2RuPb,39.1106,42.6489,3.5382
SbAs2Ir,27.2516,26.8236,-0.428
TcIr5,51.6011,54.393,2.7919
TlZnPt2,55.5252,45.7126,-9.8126
Ce2Y6Ho3Er,20.6505,22.182,1.5315
Nd6Co2Pb,19.079,21.6248,2.5458
Nd6Co2Ir,16.5086,20.4512,3.9426
Pm(Nd3Co)2,15.3066,18.6389,3.3323
La(Dy3Co)2,20.0897,21.0218,0.9321
Ac2Ga12Pt,20.8443,19.9209,-0.9234
ThCd2In,30.8695,32.5732,1.7037
V3NiP,83.7436,64.9179,-18.8257
ThCdCu,30.6076,33.2722,2.6646
Zr4PdRh,67.8702,52.9783,-14.8918
Nd6SmCo2,15.3358,18.5768,3.241
Nd(Dy3Co)2,17.0801,20.5317,3.4516
Ca2Ni,6.2692,6.1636,-0.1055
AcGa3PdPt,32.7754,28.609,-4.1664
FeRuCl3,20.5973,14.4062,-6.1911
Nd2Y3Ho2,21.0849,23.5924,2.5075
CoAu3,38.2784,37.589,-0.6894
Th4ZnTc,53.5804,53.5621,-0.0183
Li2ZnIr,16.9319,14.4712,-2.4607
Ac2(PAu2)3,37.992,39.2357,1.2437
Nb2Te6I,47.0524,42.2816,-4.7707
CaPrPd,6.6292,8.3078,1.6786
Li2LaZn,15.2076,11.3459,-3.8617
Ca3Th3WN8,21.7422,20.0908,-1.6514
Ho6Co2Pd,17.2691,19.9986,2.7294
OsRh2,20.8798,19.8882,-0.9915
Sm3Y3Ho2,16.3404,18.8973,2.5569
Zr4TcAu,88.5574,73.8954,-14.662
Y2TiSiN,44.6211,35.6655,-8.9556
BeTlCr2,17.5547,18.0557,0.501
Co3W,15.2331,18.3747,3.1417
CdReOs,72.8106,64.6463,-8.1642
BeTl2Cr,28.3682,28.841,0.4729
ScGeSe2N,32.2161,24.2317,-7.9844
Al4Pd9Au2,17.2204,18.8807,1.6603
SrFeOs,27.539,27.294,-0.245
Pr6TlCo2,-0.0,1.4706,1.4706
Sr2NdBr,17.1927,18.2229,1.0302
CdReOs2,65.476,60.3723,-5.1037
Pr(Er3Co)2,15.1323,18.0645,2.9322
Te2AuBr,35.8856,34.8001,-1.0854
TeAuBr2,28.0929,27.8251,-0.2678
AlPtCl2,21.9298,15.4694,-6.4603
Te2AuBr2,30.8381,30.1368,-0.7013
Te2AuBr,32.6417,34.8001,2.1584
AcY2Pt,44.88,40.3754,-4.5046
TeAu3Br,39.9672,39.7841,-0.1831
CdRePb,76.9529,67.0457,-9.9072
Er2TlIr,37.7555,40.5036,2.7481
ReTePd2,23.8982,27.8358,3.9377
Te2PtBr,43.413,36.3063,-7.1067
Nd3(YHo)2,22.6267,25.3913,2.7646
TePtBr2,40.5201,32.7878,-7.7323
Sm3(YHo)2,22.7833,25.5793,2.796
K2ZrFe,31.6969,26.0384,-5.6585
Th2Zr(SeBr2)2,40.1182,37.4045,-2.7137
Sm6Co2Os,23.5564,22.7938,-0.7626
Sm6Co2Pb,19.2887,21.3263,2.0376
CsNp(HgO3)2,14.7162,14.3709,-0.3453
Ba2ScPdN,13.3423,11.1645,-2.1778
ThGaCu,28.8728,29.9148,1.042
Dy6Co2Tc,23.9037,25.5824,1.6788
BeTePd2,22.2036,22.1513,-0.0523
PdRu2Pt,35.3253,30.9156,-4.4097
LiPrNi2,9.4378,7.95,-1.4878
Er6Co2Tc,25.1819,27.2593,2.0775
Ho6Co2Tc,24.5013,26.477,1.9757
NdEr3Tl4,35.3507,38.1019,2.7512
Er4ZrZn,37.1635,36.3699,-0.7936
K2SiMo,14.798,13.5864,-1.2116
CrTc2Ag,56.7442,50.647,-6.0972
CrTcAg2,41.6091,35.321,-6.2881
ScMoPb2,40.5285,40.8071,0.2786
Mg2GeSe4,16.921,14.1956,-2.7254
In2C,34.467,28.9815,-5.4855
Tb2Nd2YHo2,24.744,28.6282,3.8842
ScMoPb2,40.7512,40.8071,0.0558
Zn2MoRu,13.0856,14.824,1.7383
Ti2RhPbN,22.9451,21.3677,-1.5774
Tl2CdRe,70.245,62.3092,-7.9358
YPS2N,50.8539,40.5111,-10.3428
AcYTe2,39.2618,39.9946,0.7328
Sm5(YHo)2,23.2603,26.801,3.5407
CdAgIN2,18.4788,15.8942,-2.5845
Sc(TiCu)2,12.1964,12.0484,-0.148
Y4Ho7,23.0704,26.2948,3.2244
TaIr2,31.152,40.1475,8.9956
CuSi2Rh,22.3663,16.2391,-6.1272
NiI,11.2421,13.5261,2.284
Nd3Y2Ho3,23.3427,25.1273,1.7846
Zr6NbCo2,73.9751,59.4175,-14.5576
CuSi2Rh,22.121,16.2391,-5.8819
Zr6TlCo2,64.8779,53.0142,-11.8637
Hf(Zr3Co)2,74.2713,57.4457,-16.8256
TeOs3Ru,39.5387,40.4647,0.926
Zr6Co2Bi,64.8978,53.1331,-11.7646
CsLaNbN3,28.8337,23.4522,-5.3815
Hf2GaSi4,51.3169,35.4092,-15.9077
Th2Be3Cu12Pt,19.9689,17.9593,-2.0096
TlSn2Ge,22.0056,24.4121,2.4064
Ni4W,0.0,1.7306,1.7306
TaAg3Te,36.0552,31.781,-4.2742
Nb2Co6W,40.2676,36.1696,-4.098
Ta2NbCo6,46.7337,37.102,-9.6317
Cd(CuSi)2,10.6221,9.5902,-1.0319
Fe4OsW,55.8663,45.409,-10.4573
Ac2Zn2Pt3,58.2256,46.5265,-11.6991
CdSb2Au,39.2365,34.8302,-4.4063
UAgSb2,47.2492,41.8922,-5.357
AcLaPm3Sm,31.3249,31.9008,0.5759
SbAsRu,26.9515,23.7449,-3.2066
Zr4ReRh,80.0319,65.603,-14.4289
TcGe2Pt,50.11,41.0514,-9.0587
Zr4SbPb,81.7842,67.2366,-14.5476
Zr2Fe3Ru,38.0232,29.7374,-8.2859
CaNbIN2,35.3936,29.7877,-5.606
NbSe2IN,55.0495,44.5318,-10.5177
BaCdSb2,26.8915,22.4629,-4.4286
PbSe2F,39.3863,34.5788,-4.8075
Tb(PmCo3)2,12.4279,15.0465,2.6186
BeNi3,4.4946,7.9381,3.4435
Cs2MgNpO6,14.3335,12.5647,-1.7689
Pm(ThCo3)2,21.3338,24.4948,3.161
CuTeIr2,34.329,36.0555,1.7265
Ca2Th4Rh9,47.0876,38.9934,-8.0942
Ba2Sr9Ca4,9.5088,8.9528,-0.556
NaFe2W,20.1602,20.3585,0.1982
Nd6Te2P3,20.6857,22.537,1.8512
Tm4ZrZn,38.0168,37.2278,-0.7889
CrGa2Ru,11.408,11.9669,0.5589
Zr4ReTc,87.4595,73.3388,-14.1207
LiMoRhPb2,35.2149,32.8766,-2.3383
ScSeBr2N,17.3831,14.4419,-2.9412
Y2Ho2Tm5,26.4212,29.9401,3.5188
Sb2AsOs,35.7886,28.7093,-7.0793
SbAsOs,32.7569,31.4845,-1.2724
Bi2RhS2,49.4346,41.7767,-7.6579
Zr4TlPb,82.6402,69.7169,-12.9234
Tb4ZrZn,35.3323,34.6401,-0.6922
Hf6Cd2Co,100.6932,74.2408,-26.4524
Co(AgBr3)2,14.9998,12.7883,-2.2115
Mg3In5Sn12,8.3515,9.702,1.3505
Zr3BeMo,65.5854,51.0503,-14.5352
ZrBe2Mo,32.7463,25.9408,-6.8055
VGe2Pb,45.2821,39.6309,-5.6511
ZrBeMo2,37.6491,30.3994,-7.2496
Li2TaZn,11.8215,13.338,1.5165
Tl5Sn,43.2766,44.2746,0.998
Ce6CoAu2,27.9249,29.2218,1.2968
GdScInIr,32.3458,27.924,-4.4217
Sc2Mo2W,21.0135,23.9462,2.9327
LiIn2Br,19.5682,19.8531,0.2848
Tl2RhS2,52.5818,44.3935,-8.1883
RbCaLa,17.457,13.8727,-3.5843
ZrAlOs2,46.0997,44.2386,-1.8611
AgMoBr2,17.8104,14.1317,-3.6787
BaCd2Cl,7.8606,10.5533,2.6927
HgIr3,26.9615,31.9429,4.9813
Sc3In3Ge2Ir,29.3257,22.8062,-6.5195
CdSnPb2N,37.9174,35.7172,-2.2001
ScPbSN2,31.8483,30.565,-1.2833
CePaZn4,20.2794,22.245,1.9656
GaBiI2N,23.6786,23.1299,-0.5487
Sr(Ni2B)6,5.3697,6.1721,0.8024
Ge2Sb2Pt,35.0386,25.9159,-9.1227
TbFe4Ag,9.9401,11.0913,1.1513
Ac3Y3PuTe8,41.5507,41.0569,-0.4938
Pr3Y2Ho3,13.4407,14.6865,1.2458
Sm4Y3Ho4,23.1929,26.4429,3.25
Sr(Ag2Sn)6,27.0869,23.209,-3.8779
LiMnP,41.4698,32.7948,-8.675
PrGeSb3,16.2635,11.6759,-4.5877
NpRu,31.8317,42.2685,10.4368
Na2TlTeSe,37.5444,33.0714,-4.473
Fe2Si2Os,14.2691,10.8097,-3.4594
Yb3Al2(CuP2)2,26.8174,23.8467,-2.9707
Si3Os,21.9923,17.6726,-4.3197
Ba2NaZnN2,13.9945,11.6691,-2.3255
Th2Ga4Cu3Tc,29.4525,27.6146,-1.838
GdNb2,93.1707,79.3951,-13.7756
NbAgPb2,70.0944,63.4646,-6.6298
AsIr2Au,36.5121,39.7217,3.2096
CdSb2Pt,49.7934,38.0436,-11.7498
Zr3TlOs,79.4188,67.2287,-12.1902
Nd5(YHo)2,23.0724,26.6249,3.5525
IrOs3,43.0283,47.9617,4.9334
NiICl2,6.653,8.0717,1.4187
As2IrAu,27.8567,30.2178,2.3611
AsIrAu2,37.2372,39.6539,2.4167
IrOs5,42.0514,47.1443,5.0929
Pr2SmAl2,0.3925,3.7936,3.401
Pb2C2F,41.996,37.2142,-4.7818
Al2RhPb,26.7165,26.6406,-0.0759
Nb2AgPb,92.2527,78.7709,-13.4818
BeTeIN2,34.1757,28.1611,-6.0146