Formula,E_hull_DFT (eV/atom),E_hull_ML (eV/atom),Delta (ML - DFT)
In4Ni3,13.8928,15.3904,1.4976
CePrGe2Pt5,53.1758,37.2018,-15.974
Ac3B2SbPt9,68.9438,50.5573,-18.3865
Tl2HgPdF6,12.3102,12.9124,0.6022
HfV2Cu,102.3436,74.2831,-28.0605
RhPbN2,26.5932,25.9045,-0.6887
BaHfCu2,40.9332,30.9485,-9.9847
TaGaAs3,32.7263,27.7402,-4.9861
HfCuMo,46.1717,32.1051,-14.0667
YInPd2,20.2956,20.673,0.3774
AcTa2Ru,42.9403,43.9335,0.9932
La(HfCu)2,64.1082,46.6101,-17.4981
Ta2GaAs2,46.2033,37.4969,-8.7064
Cs4Sm3TmO8,11.1999,12.2861,1.0862
In2NiPb2,26.9117,28.5758,1.6641
BaHf2Cu,74.9663,54.813,-20.1533
Rb3Pd2I7,16.0388,16.1533,0.1145
Rb3Sn7Pd2,17.3864,15.6252,-1.7611
Ac2HoZrS6,57.7689,47.172,-10.597
K(CdPb3)2,40.6118,41.1066,0.4948
Ba2CoBS,14.2807,10.5467,-3.7339
Y2SnHg2,21.1114,16.9995,-4.112
HfNpCu,48.9595,43.735,-5.2246
Y6HoTmSc2,11.0129,11.7394,0.7265
AgPt3Au5,59.7041,49.6957,-10.0084
Ac2GaNi2,14.9102,20.6808,5.7706
UVSb,55.8415,49.4394,-6.4021
TbDy(Y3Sc)2,8.905,11.2833,2.3783
YHo6TmSc2,19.1745,20.1103,0.9358
Er3TmAu4,37.6128,39.4581,1.8453
Nd6SmYSc2,15.5657,17.5893,2.0236
Ba2GaNi2,10.9695,7.6618,-3.3077
NdHfCu2,45.435,37.4496,-7.9855
Sr2LaAu2,34.2916,31.7573,-2.5344
PrCo(CO3)2,15.4957,13.4751,-2.0206
AcSm6Th,35.1208,36.9641,1.8433
Cd5Ag3Sn,23.496,21.8029,-1.6931
Sr2Y2Hg,22.454,18.661,-3.793
NbInCoHg2,33.907,29.1742,-4.7328
Pr2GaSb,9.2732,7.7199,-1.5533
TiZnBr2,8.4193,11.2051,2.7858
Na2CuSI,26.3339,21.5535,-4.7804
Ce5Sc,21.7013,23.9345,2.2332
Y2InHg4,17.2527,14.3145,-2.9383
ScNiS3,43.5925,35.5113,-8.0811
U4SiGe,49.7355,51.3444,1.6089
CdNiMo2,25.7013,24.8389,-0.8624
Hf3S,112.108,79.4873,-32.6208
HfCu2Sb,44.7848,35.0981,-9.6867
HfZrNbCu,97.6307,77.3273,-20.3034
Al2(V2Ga)3,73.218,57.9243,-15.2937
Hf4CuSb,95.9962,68.0404,-27.9558
HfZrCuOs,72.347,59.4313,-12.9157
InAg3Sn5,24.2692,22.7236,-1.5456
Hf2Cu2Sb,62.8403,46.3282,-16.5121
HfCr2CuNi,45.4218,35.303,-10.1188
RbTl2MoF6,10.9394,12.1429,1.2035
Hf2TlCu,80.3448,63.4167,-16.9282
HfFeCuNi,61.2692,44.9645,-16.3047
CrSb2TePt,46.6842,35.4533,-11.2309
Cu(TcAs)2,35.7695,32.7949,-2.9746
PuCd3Ag5,31.9262,29.0067,-2.9195
NiAsBr2,19.434,17.3754,-2.0586
Cs3Rb7Cd2,10.3858,9.8126,-0.5732
HfCuIr,39.569,34.7399,-4.8292
LaHfCuAs3,31.4843,23.9498,-7.5345
Sn6Sb,24.6086,23.8211,-0.7875
Y3HgO,31.6939,24.727,-6.9669
Li4Hf3CuSe8,50.448,37.5704,-12.8776
Ag3Pb5I,42.2576,40.6117,-1.6459
Ba2CoAsS,17.8463,13.4652,-4.3811
YGa2Hg,16.5981,14.9738,-1.6243
Pr2HBr5,1.7032,6.9031,5.1999
AcAgGe2Pd5,22.1542,22.8572,0.703
HfCuGeAu2,51.8214,43.7189,-8.1025
Rb3Tl7Pb2,38.8584,39.2568,0.3984
Y3TaHg,45.2705,35.3556,-9.9149
Y5(SnHg)2,28.4658,21.5545,-6.9112
RbRePt2,56.5203,42.3185,-14.2018
HfCuSbRu,53.2258,42.1972,-11.0286
HfCuSbTe2,56.363,44.4084,-11.9546
BeTl2W,38.9999,39.3134,0.3136
CaGdMgSn,14.0173,16.1303,2.113
Rb2SClF6,6.3888,5.7781,-0.6107
BePdSe,20.9643,19.7146,-1.2496
ScTcAs2,66.9663,58.5782,-8.388
PrSmGdY,16.7178,19.2394,2.5216
Cr4CdCoS8,36.3333,27.4984,-8.8349
LaGd6,33.6823,32.2297,-1.4527
ScCu2Tc,65.5735,57.4443,-8.1292
PuCu(SbS3)2,50.457,40.2208,-10.2361
Sc3SI,27.1791,25.5694,-1.6098
ZrTlMo,55.628,51.0189,-4.6091
Hf2TcIr,105.1174,83.3706,-21.7467
CuTc2As,50.9327,45.8828,-5.0499
CaPmSn4,18.5937,16.8039,-1.7898
ErV2CoO8,23.5958,19.5236,-4.0722
TaFeRe2,40.1722,41.5674,1.3953
LiYHg3,11.7351,9.4768,-2.2583
SmY2TmSc,16.1744,17.9127,1.7383
YMoSN2,41.5862,34.2117,-7.3745
InAs2Pb,23.3496,24.4786,1.129
Y2HgMo,32.6846,25.0576,-7.6271
Rb(MnIn)2,44.2995,37.2796,-7.0198
SrTb6,25.9887,27.6701,1.6813
Zr3Mo,68.7422,56.132,-12.6101
YTm2Hg,27.7994,26.761,-1.0384
In2AsPb2,27.8139,29.185,1.3711
TcSb3S,57.3159,44.8086,-12.5073
Sr6Lu,17.6435,18.0863,0.4428
YReHg3,18.6481,17.0499,-1.5982
Be3Cu2,7.6093,6.4382,-1.1712
Tb(PuSc3)2,22.9127,24.7754,1.8627
Rb2ZnPdF6,2.2082,1.8781,-0.33
La6Tl2CoN,63.0804,48.9921,-14.0883
Pd12Se,20.1986,20.9233,0.7247
Y2Hg2Te,24.0425,19.7745,-4.2679
ReTc2Ge,72.3472,62.7323,-9.6149
SrLaBr5,12.571,11.2158,-1.3552
FeReW,41.0056,40.4205,-0.5851
Nd2ScSn4Pd3,25.0383,21.7295,-3.3088
NaPmNd,24.8068,25.607,0.8002
TePb6,51.5971,51.8486,0.2515
Y3C2,39.3206,30.6599,-8.6607
KP2Ru,8.9627,9.9331,0.9704
La3BiRu,38.4904,30.8983,-7.5921
TlZn2AgF6,9.6079,8.2807,-1.3272
Re2TcGe,50.46,46.037,-4.423
ErCoS,24.0991,22.5957,-1.5033
TlZn2InF6,8.2281,7.9177,-0.3104
AlCdW2,19.1996,25.476,6.2764
YHgSe3,38.8989,30.8959,-8.003
ZrTl4Mo,53.7174,51.1242,-2.5932
ZnAg2AuF6,16.0084,14.193,-1.8154
RbTlZn2F6,6.1113,6.0198,-0.0915
Y2MnHg,45.4063,36.1451,-9.2612
RbGa3Tc,24.0929,21.8127,-2.2802
Sm2Er(Zn4Ni)3,10.6396,11.8658,1.2262
DyScNb4,99.9723,83.2836,-16.6887
LiInC,24.3043,18.2024,-6.1019
Ga2TcHgGe,23.7977,21.9085,-1.8892
CuSb2Pt,46.2375,34.3979,-11.8396
YHg3Pd,5.3277,4.6686,-0.6592
Mn2CoSiHg,46.2533,36.3739,-9.8795
Y4ScHg5,20.1966,16.332,-3.8646
Tb5NiRh4,32.8034,29.2063,-3.5972
GaTcBi,46.6782,46.1854,-0.4929
Ga2TcRh2,34.7734,29.179,-5.5943
RbAlTl2F6,14.3893,14.1133,-0.276
YHgW3,36.6984,35.5282,-1.1702
RbGa3Tc,11.6979,21.8127,10.1149
YIn3Hg,22.553,20.4403,-2.1127
U6V,78.5376,76.0031,-2.5345
GaTcSe,49.6645,42.9547,-6.7098
BeOs3Ru,31.0289,32.7422,1.7133
GaTc2As,50.9674,46.0892,-4.8782
Sm2Mn(ZnNi4)3,19.4784,19.7468,0.2684
Ga2Tc,31.2625,30.3084,-0.9541
GaFeTc2,48.1667,42.7355,-5.4312
Cd2GaTc,32.1324,31.2112,-0.9212
Ga2TcHg,24.0507,22.901,-1.1497
Ac2Ni2Ge,33.3039,33.764,0.4601
UGaTc4,74.8726,66.7569,-8.1157
YHg2F,10.3504,10.4755,0.1252
Sm4TlAu,28.1946,31.235,3.0404
Pa2Ni2Ge,26.7949,29.4242,2.6293
Co3BiI,20.4127,21.3649,0.9522
Hf(NiPt)2,60.1345,42.2268,-17.9076
NdDySnPd,24.8768,25.1211,0.2443
Y3HgC,36.4699,27.8213,-8.6486
NiAg3,21.8708,18.9177,-2.9531
CaMnAg2F6,20.0974,16.2317,-3.8658
TaGaSb2Te,53.143,42.5754,-10.5676
YHgBr2,17.7021,15.2018,-2.5003
Zr2AgGe,53.0673,45.1686,-7.8987
TlAuSe,45.185,44.7773,-0.4077
YV3Hg,88.6826,68.2987,-20.3839
TiMo3I,16.7579,18.6154,1.8575
SmPaGe2Rh5,38.9062,31.8276,-7.0785
Pr2YHg5,4.5492,3.9048,-0.6444
TlSb2Rh,43.0389,36.0248,-7.0141
YVHg2,41.3637,32.411,-8.9526
Y(TiHg)2,13.8846,12.3757,-1.5089
Ba2ZrP4,19.7504,16.1928,-3.5576
Al2Tl2Zn,20.7457,22.2696,1.5239
Si2IrPbN,29.1074,24.1962,-4.9111
NiW,26.0577,27.8755,1.8179
AlTlZn2,17.521,18.5149,0.9938
SrAc(PtO4)2,21.0864,17.5839,-3.5025
NdEuSi,23.9478,23.9293,-0.0186
Sc3ZnS6,40.5454,34.4616,-6.0839
PmMnBi,53.7344,51.0227,-2.7117
Sc8Te3CS3,34.4791,30.3142,-4.1649
ZrSc7,16.7609,15.3907,-1.3702
Al2TlZn,16.2945,17.931,1.6365
Np3PS2,53.9066,53.2433,-0.6633
Pr3(YHg)2,12.1419,9.7743,-2.3675
AcGa2BiPt5,64.3286,48.1553,-16.1733
Pb(IO)2,48.4531,40.4238,-8.0293
Rb2ScO3,36.4514,33.859,-2.5924
Sc3AuN,0.0,12.535,12.535
Ce3FeC4,39.3937,30.5765,-8.8172
La2Ni2Ge,22.3891,15.7234,-6.6657
GaHg2As,4.6645,5.5819,0.9174
Ac2Tb2Te2Se3,44.1656,41.4417,-2.7239
SrGe2PbAu5,35.6047,36.5749,0.9702
Pm4ThIn15,22.6919,24.0558,1.3639
K(Tl2Bi)6,49.9644,50.2908,0.3264
Ac4PtSBr2,52.7343,48.8735,-3.8607
SrPmGe2Pd5,15.6218,17.3626,1.7408
Y2HgIr,35.9125,31.0816,-4.8309
Sm(DySc)2,18.1388,20.5513,2.4126
FePd2Pb,24.6711,25.2983,0.6272
LaY2Hg,38.1508,27.8948,-10.256
CsTmCoO3,2.6936,6.2235,3.5299
CsTiSb3,34.6964,28.274,-6.4224
PmNdYHg,24.7533,23.9091,-0.8442
CsBeN,23.9876,20.1877,-3.7999
AcCd(SnPt2)2,59.7966,46.1946,-13.6021
HfV3P,108.558,81.8362,-26.7217
SrThGe2Pt5,60.0978,43.9967,-16.1011
Zr2ScF,45.892,38.1704,-7.7216
LiBe2Ag,9.9322,8.022,-1.9102
CsSn2PtO,50.323,39.8347,-10.4882
YPaTlHg,42.1698,41.2888,-0.881
YAlHg2,18.932,15.1106,-3.8213
LaNbBi3,72.6576,63.8038,-8.8539
YEr2HgC,33.5538,28.9736,-4.5802
GdTm2Pa,39.6965,42.2948,2.5983
Ac2(H2Pt)3,35.6698,28.9039,-6.7659
ReBP2S,39.0074,34.0731,-4.9343
Nd(InNi)2,14.9965,17.2591,2.2626
YErHgAu,31.1137,29.6924,-1.4214
CsBeN2,30.3425,26.0618,-4.2807
Li2YHg3,8.9204,7.7611,-1.1594
LaTbLuSc,29.3058,27.4158,-1.8899
MoIr2PbF,37.6566,35.2365,-2.4201
RhPb6Au,51.5401,50.7482,-0.7918
LaY2(InHg)2,27.148,22.2178,-4.9302
Rh3PbAu,50.9178,42.0077,-8.9101
Li3MoBr,13.5642,12.3155,-1.2486
Nd2DyNi2,12.1866,16.5145,4.3279
SiSO,23.0892,18.2112,-4.8779
UNi4W,26.8434,25.5624,-1.281
DyCu4Au,16.6254,18.6504,2.025
La2CuNi4Ge3,21.504,14.9886,-6.5154
Tl2AgGeI5,25.4736,25.7087,0.2351
AcYHg6,13.8295,13.1013,-0.7283
TiSbP2Pt,33.0301,25.0246,-8.0055
Cs2HgPdF6,6.5395,6.1627,-0.3768
TiPPt,37.5485,29.4752,-8.0733
Ga2GeAuSe6,32.3254,26.8043,-5.5211
ZrUNi,48.9231,47.6982,-1.2249
NbCd2P,46.6416,40.9159,-5.7256
Rb2SrAcF6,11.5544,11.6041,0.0497
BeInNi2,7.9676,11.1172,3.1497
CsSnO2,52.5491,43.2243,-9.3248
Pr(BiSe2)2,37.1032,33.3269,-3.7762
NaYHg4,12.2503,9.8199,-2.4305
UMnNi,92.1444,84.7436,-7.4008
EuTcN3,14.7842,14.7988,0.0145
Hf2ReRh,85.1899,63.9773,-21.2125
NaYHg6,8.937,7.1516,-1.7854
La2YHg,38.2958,27.2304,-11.0654
SmEr4Tm,29.0513,31.3247,2.2733
UTl2Ni,44.6422,47.0109,2.3686
ZnCrTcMo,32.3434,30.0818,-2.2616
LaRe6,42.5504,42.2548,-0.2956
Na2YHg,22.8944,20.0901,-2.8043
LaBeBr2,18.1827,14.2676,-3.9151
Pm2Be4AlGe3,13.8474,13.1138,-0.7337
Sm2GdSb,30.7132,31.0076,0.2945
LaYZnHg,27.0407,20.496,-6.5447
Cr3Mo,0.8553,4.475,3.6198
NaIn2Fe,20.7826,18.9312,-1.8514
Ba(In3Ni2)2,15.2342,14.7756,-0.4586
Rh2WSe,46.4961,38.1958,-8.3002
Nb(NiRh)2,50.1822,40.6277,-9.5545
TmPaNb4,110.8701,94.7167,-16.1535
YHg2Mo,20.0646,15.041,-5.0237
Ce2FeGe6Ru,12.7483,12.0634,-0.6849
Cs2DyGaBr6,10.1928,12.4398,2.247
LaY2(TlHg)2,36.0705,30.984,-5.0865
Pu2FeTcGe6,22.4001,22.509,0.1088
ReNi3,26.4614,19.4034,-7.058
YAlHg,25.2624,20.8331,-4.4293
TlCrSb,30.4282,27.0287,-3.3995
Pu(PaNi)2,34.4432,40.6322,6.189
BaLa2Pr,24.7461,17.6018,-7.1443
Ba4LaCu,10.8062,8.2058,-2.6004
Ac2MnPbO5,42.6727,42.0206,-0.6521
MnGaNi2O5,35.5652,32.2851,-3.2802
RbOs2O,16.5684,18.6302,2.0618
NpPS,43.9056,46.5609,2.6553
MnAl3Sn3Ge2,29.965,26.0673,-3.8977
Ta2W2F,39.1766,37.0339,-2.1427
Sr4Ga2Ge,11.4256,12.5515,1.126
Pm2YHg4,14.1478,13.4775,-0.6703
AcAs2PtRh5,46.2779,35.5445,-10.7334
PrGdPt2,49.8138,37.2316,-12.5822
RbCe(GaBr3)2,6.4245,8.4406,2.0161
YRe2Hg,33.0466,28.6202,-4.4264
Nd6Co2SBr3,23.9106,21.6227,-2.2879
KLaTi3,17.4152,14.5589,-2.8563
YRe2Hg,33.3299,28.6202,-4.7097
AcGa2Pd5Pt,30.8,27.7945,-3.0054
RbYHgO3,8.1308,8.232,0.1012
PmGaPb2,34.7008,37.1706,2.4697
SiNi2Au,18.614,19.3485,0.7345
Er3Tm4Th,34.768,37.149,2.381
YEr2(InHg)2,20.9724,20.9076,-0.0648
AcHoGa2Pt5,61.0853,45.19,-15.8953
Pr4ScIn5,9.5292,10.3415,0.8123
SiNiAu,22.7601,22.6047,-0.1555
NaGaFe2,23.4915,17.7791,-5.7124
Y2ErHgO,32.7931,28.1483,-4.6448
RhW2Se,44.0516,40.6976,-3.3541
Rb2Y(HgTe2)2,23.9315,21.6465,-2.2851
BaCoTc2,44.8142,37.6312,-7.183
Nd2Ni2Pt,29.6681,26.5078,-3.1603
AcGa5PdPt2,37.848,30.1065,-7.7415
LuScInRh,27.5315,25.5733,-1.9581
YHgRh,32.8911,24.7266,-8.1645
YNiC2,64.9685,51.0354,-13.9331
HfTlTc2,95.2716,79.7252,-15.5465
CaFePS2,41.9849,31.2042,-10.7807
YHgSb2,34.5973,26.999,-7.5984
YHgRh,33.0825,24.7266,-8.3558
LiEu2In,20.1698,20.4607,0.2909
AlFeCo2,20.4232,13.8934,-6.5299
KBaSiP2,7.9537,7.9677,0.0141
CdHgSe2,29.0495,24.3951,-4.6543
YCuHgPd,22.0164,20.0172,-1.9992
AcGe2Pt5Pb,64.2824,48.4221,-15.8603
Er3Tm4Tl,32.6194,35.4644,2.845
Ni2Bi2Pb,30.2887,33.4814,3.1927
YTaHg,40.7578,34.825,-5.9329
Y2CuP2,24.4844,17.5522,-6.9323
Sm6P3S2I,24.3374,25.6567,1.3193
CsHf3Sc,93.6201,68.1849,-25.4352
BAsC2,30.5212,22.979,-7.5422
Y4AlHg,32.0182,25.3149,-6.7033
YErZnHg,21.4535,19.8905,-1.563
Na2RhPb,38.1921,33.0327,-5.1594
Co2CuRu,24.7939,22.423,-2.3709
Li3Sm2BeNi12,7.3128,9.1889,1.8761
Rb2ZrGaBr6,13.0217,12.2115,-0.8102
AcEuSbPt,55.8571,48.2945,-7.5626
NaRu2Br,23.1873,20.6422,-2.5451
Pr2TmTe,10.3523,12.9005,2.5482
YTcHg,82.0646,70.9202,-11.1444
TlCrRh2,39.7988,33.3906,-6.4082
TlCrRh,36.6889,32.2053,-4.4835
SrYIn3,19.9934,19.0846,-0.9089
NaPN2F,22.1042,17.2322,-4.872
Cu2(BPt2)3,57.6163,38.6761,-18.9402
TiSbTe2Pb,38.3232,35.1581,-3.1651
V(InRu)2,33.7097,30.7657,-2.944
TiInRe,13.6798,20.5676,6.8878
ZrOs2Pb,59.0134,57.5614,-1.452
TaTe2Br,33.8023,33.1605,-0.6418
InAsPb2,30.3658,32.8168,2.451
YHgW,31.1035,28.7128,-2.3907
Tm2(CoB2)3,7.0374,9.1692,2.1318
CsNaCoO2,6.608,8.5928,1.9848
YHg2W,23.5641,21.4106,-2.1535
InFe4Sn,8.8156,9.0561,0.2405
Ac2CuPt6Rh,72.046,53.798,-18.248
K2CeF6,9.0003,8.6746,-0.3258
PrPuOs4,38.9838,43.0003,4.0165
Er8Tl2In,32.3068,33.7004,1.3936
ScAlCo5P2,23.3938,19.127,-4.2668
LiBe2Te,13.0105,11.7016,-1.3089
RbBe2TlNi,12.7598,13.4697,0.7099
YErHgIr,30.2136,30.3186,0.105
AcGa2HgPt5,58.348,41.8634,-16.4847
Nd2Y(InHg)2,19.5758,19.7325,0.1567
MoPS2N,40.0418,30.2514,-9.7903
Rb2CeGaI6,13.0517,14.4688,1.4171
Cs2GaSbI6,20.4494,20.7037,0.2542
In2GaBiSe6,34.9321,30.9124,-4.0197
GaAg(SnSe3)2,32.9942,26.875,-6.1192
Zr2Al2Pb,44.9829,39.3395,-5.6433
Er4CuIr2,29.4775,32.9266,3.4491
HoVRu2,47.1918,42.5221,-4.6698
Y2HgRu,29.2654,24.6621,-4.6034
YHg2Ru,16.6167,15.2176,-1.3992
ScSeS2,45.8837,37.9989,-7.8848
GdYHgRu,23.6587,23.4038,-0.2549
TeIrOs,43.3399,46.334,2.9941
CdHgTe2,23.2902,23.3058,0.0156
Ba2YHgRu,26.4528,22.8626,-3.5902
CdHgTe3,29.5491,27.4544,-2.0947
Er4IrPt3,52.5167,42.6274,-9.8893
Er4OsAu3,36.916,39.8061,2.8901
Fe4Sb3,36.4628,30.95,-5.5128
La4YHg5,25.1049,17.5502,-7.5547
YHgSe,32.1916,25.7861,-6.4055
Ba3AcPt2O9,14.9803,12.3644,-2.6159
GaSbMo,17.5028,17.3784,-0.1244
Rb2(AgBr2)3,14.4318,12.8027,-1.6291
Ce2Y(InHg)2,19.7259,19.5091,-0.2169
MnTcBi2,70.9938,64.4303,-6.5635
NaMnPt,67.6977,54.0471,-13.6506
Tc2NiS,55.815,47.8169,-7.998
K2NaTc,34.4631,29.0855,-5.3775
SbRuW2,44.6643,41.3892,-3.2751
Pm2IrPb,35.9958,39.1213,3.1254
SbRu2W,48.7944,41.0902,-7.7042
Pr3InNi,8.1312,6.8612,-1.27
AsPd3I,18.0857,18.947,0.8613
Rb2YHg,14.1361,10.5057,-3.6304
SrAlPb,23.3597,25.2327,1.8729
Rb(CuSn3)4,37.629,33.3789,-4.25
TeIrPb2,47.8511,49.1983,1.3472
AgHgW,67.949,52.0115,-15.9374
IrOsPb2,48.4399,50.6927,2.2528
V2GaSb,77.9927,61.7755,-16.2172
AcCe2Si2Pt7,63.2516,45.3278,-17.9238
LiY2Hg4Pb,19.9447,17.6036,-2.3411
TeIrPb2,48.1648,49.1983,1.0335
TeIr2Os,43.2735,46.1045,2.831
AgHg2W,50.9599,39.3956,-11.5643
Ir3OsPb,48.0479,49.6074,1.5595
YSiHg,29.3684,26.113,-3.2554
TeIrOsPb,39.2253,44.0111,4.7858
Ag2HgW,58.9915,45.2782,-13.7133
Tc2RhSe,70.9453,58.5622,-12.383
KTcRhSe2,52.2354,41.3956,-10.8397
Tm2Be3Si4Pt,33.546,26.6594,-6.8866
YSiHg2,22.0627,18.8232,-3.2395
Sm2Y(SnHg)2,20.7982,20.0613,-0.7369
BaMnRu3,32.7647,29.4156,-3.3491
TePb4Se3,49.1292,45.616,-3.5132
ZrTi2Sn,42.9182,31.4245,-11.4936
TcRhSe2,59.5993,50.3481,-9.2512
Sr2Zn2I,10.6634,11.7555,1.0921
Nd2Tm2Tl,28.1256,31.1747,3.0491
Pm2TcGe6Rh,18.7528,18.1651,-0.5876
TcRh2Se,59.9949,47.7432,-12.2517
Ce2TcGe6Ru,14.754,15.845,1.091
Ni2GeAs,5.1379,2.5096,-2.6284
La2YCd2,27.1052,22.1756,-4.9296
NiGe3As,17.535,15.1057,-2.4293
BaMnRu2,33.8585,31.2032,-2.6554
Tm2AlSi4Pt3,42.3003,30.7247,-11.5756
Sb3PtRh,55.3996,39.8431,-15.5565
VSb2Pt,77.1652,58.0016,-19.1636
AcLaBiPt,64.3035,54.6214,-9.6821
CoBi2SbO8,18.4235,18.4683,0.0448
HgTeIr4,36.5899,38.244,1.654
Rb2GaPt2,34.5418,26.7174,-7.8244
HfTc2I,88.5374,72.1797,-16.3577
Nd2SmHg2,11.0234,14.4815,3.4581
KPr2SeO5,4.81,2.1862,-2.6238
CsNaTaOF5,12.4357,10.5493,-1.8864
LaZr2Mo,66.1152,52.4889,-13.6262
Ba2LiCoN,46.2172,39.4073,-6.8099
RbPaSb2,39.3728,36.1215,-3.2513
Hf2CuPb2,73.9865,59.2787,-14.7077
ZrCo2AsS,42.9157,32.225,-10.6907
H8Ir3Au2S,20.3804,20.3664,-0.014
HfB3Pb,41.1006,33.8519,-7.2487
MnCoIrN2,75.072,64.7587,-10.3133
Y2MnHg,50.2009,36.1451,-14.0559
EuDy2As,23.2725,25.3946,2.1221
ScAsRhBr2,27.875,20.6669,-7.208
HfThAu,85.5057,73.8514,-11.6543
ErPu3Au4,53.818,56.1724,2.3544
SrGa6Ag,11.6507,11.6493,-0.0015
ErTh3Au4,51.4602,53.4731,2.0129
Y2MnHg,50.2003,36.1451,-14.0552
Nd3Y2Hg3,21.4805,19.625,-1.8555
KSeBr3,10.3334,9.8925,-0.4409
KSeI3,18.1432,17.4539,-0.6893
YMnHg2,37.4575,30.07,-7.3874
K2Zn3Sn5,12.1894,13.0197,0.8303
PmPr3Nd4,8.9253,11.877,2.9517
Er4USb5,40.1481,36.5605,-3.5876
LiAlPb,22.6747,22.263,-0.4117
HfMoPt,65.3807,46.7924,-18.5883
Sc2AuI,20.172,22.5955,2.4234
Nd2Tl2Pb,36.3922,39.8341,3.4419
ScCu,5.7077,2.7239,-2.9838
Y4Tl2GaHg,29.7202,27.7053,-2.0149
Ba2Be2Br,4.5798,4.112,-0.4678
MnTeIrC2,63.7243,51.1398,-12.5845
NdYHg4,12.1945,11.0054,-1.1891
Nd7YHg2,22.5345,22.6324,0.098
AcPrTh,42.0056,45.7534,3.7478
NbSn2Te,56.8349,50.3824,-6.4525
U2GaSb,47.6154,47.2759,-0.3395
ScAu2S,43.4227,45.1816,1.7589
NbTe2Pb,70.0517,63.2793,-6.7724
BaTeRu3,20.5571,21.039,0.4819
Gd2YMg,19.7991,21.2964,1.4973
Nb3SnPb,101.3879,85.234,-16.1539
NbTe3Pb,64.2068,56.9046,-7.3021
Re3AsPd,31.2156,33.3024,2.0869
ReAsPd2,21.9022,24.8005,2.8983
TbLuOs,33.7309,37.864,4.1331
AlCrCoHg2,14.3628,9.3469,-5.0159
EuYMgHg,20.1294,18.3353,-1.7941
CaMnRh,33.9285,24.4259,-9.5025
Nd4SiGe,14.529,16.9427,2.4137
MgSi2,0.0,1.6056,1.6056
Ti2BeSb,22.0022,19.0108,-2.9914
MgSi2,0.1606,1.6056,1.445
LiPr2Ru,29.3726,27.4631,-1.9095
Sr3(SiPb)2,37.2775,30.9136,-6.3639
Zr2RuN,67.0976,56.5717,-10.5259
NaPr2Sn4Pt3,35.9638,27.4611,-8.5027
Nd(DyPt)2,44.4633,35.6993,-8.764
Er6Tm2Sc3In,23.0984,24.1815,1.0831
SrTePbI2,26.4806,27.5191,1.0385
Na2ReAg,32.0867,28.2035,-3.8832
Sc2Pd3,12.2854,11.6709,-0.6145
RuPbAu2,41.3521,43.5143,2.1621
NaYHgCl6,17.6005,17.0629,-0.5376
Hf3Pa,124.742,95.4,-29.342
Nd(ErTh)2,43.1133,47.5747,4.4613
PbWBr3,31.476,28.9826,-2.4934
TaNi2W,25.7528,28.4628,2.71
CeNd2Pd,22.709,25.9011,3.1921
Pm4InSi,16.9621,19.4865,2.5245
Ac2NdPb2,46.6722,50.4027,3.7305
Pm2PrNd,17.4022,20.4248,3.0226
Sc3Ag4,19.8399,18.4979,-1.342
BaNaCa2Se,32.6835,26.0188,-6.6647
Ba6Pt3Br2,25.9554,18.487,-7.4684
KZnSb2,27.5465,22.6937,-4.8528
CeThAu6,46.2478,48.2118,1.9639
Sm2YHg5,11.9941,11.4428,-0.5513
NaScTl4,38.9222,38.8878,-0.0344
DyErCdSi,22.3176,22.9169,0.5994
TaNb2Fe5Co2,37.6538,29.9512,-7.7026
LaCuAs2,13.3049,11.9593,-1.3455
La3InMo,38.1029,27.8133,-10.2895
Cs2Mg3(As2O7)2,2.3706,1.8655,-0.5051
SrCdAs2PbO8,2.8498,3.9583,1.1085
SbPb2W,47.8311,47.6084,-0.2228
SiAs2Pt,41.7181,33.7046,-8.0135
SbPdW2,35.9675,36.6137,0.6462
SrErZnGe,14.8461,16.7539,1.9078
Sb2PbW,45.5517,42.9735,-2.5782
Dy2Ga5Ru3,9.51,11.2544,1.7444
CeErTl6,44.6833,45.9035,1.2201
PuPa2,68.9646,74.1132,5.1486
SbPbW,45.8734,45.0082,-0.8652
SbPb2W,47.7086,47.6084,-0.1002
Sm3Y2Hg3,21.6166,19.7942,-1.8224
GdAs2Au,16.0296,19.5527,3.5231
NaGeSbI2,24.8845,21.9742,-2.9103
ZrCu2Au,39.7794,35.8127,-3.9667
SbPbW,46.6869,45.0082,-1.6787
Sr3CaRh,17.5126,14.9373,-2.5753
GdZrPa,65.1613,61.628,-3.5333
Zr2CuAu,62.6199,55.3513,-7.2686
MoWCl,24.3742,23.9855,-0.3887
Np2Ga5Rh3,25.7189,23.6075,-2.1114
DyEr2(TlCd)2,32.1839,34.0713,1.8874
Ag2Ge2Pt,34.4373,27.1077,-7.3295
Nd(TlBi)2,42.9044,45.3335,2.4291
Be2TlW,28.7865,28.7399,-0.0466
Ga3SnPb,20.3788,21.1665,0.7878
LaY2Cd,24.4972,22.0969,-2.4003
SiTcCl2,29.7937,24.339,-5.4547
Nd(TmAu)2,30.6812,34.0228,3.3416
Nd(TmTh)2,43.6294,48.0721,4.4427
SmSiPd4,12.0467,14.3736,2.327
W3IN,33.0776,33.7549,0.6772
Pm2ZrGe3,28.5937,27.2067,-1.387
SrLuGa4,13.0672,14.5968,1.5296
VZnGaCo,44.6173,33.8227,-10.7946
YThHg,33.6534,33.2043,-0.4491
CaDy2YHg4,10.2803,10.5508,0.2705
LaBeRe2,33.6127,31.658,-1.9546
EuTm2Pb,35.3046,37.2481,1.9435
ZnSb2TeP,29.2471,24.1371,-5.11
NaTcGe2,33.887,31.2097,-2.6772
Yb2SbCl,28.3332,27.6647,-0.6685
ThSiPt4,65.0591,46.4858,-18.5733
Sm3(YHg2)2,15.7327,14.9532,-0.7795
DyY3Hg5,19.4378,16.1641,-3.2737
YZrHg,44.0117,39.6244,-4.3873
K2HoNi3F12,8.0223,9.588,1.5657
TmMnP,29.1775,29.2911,0.1136
SiTcCl2,29.8548,24.339,-5.5158
Li2CeYHg4,11.3368,10.5646,-0.7722
CrInSbTe2,32.4763,28.4957,-3.9806
CsLa(PO3)4,9.4887,7.7444,-1.7443
SiTcCl2,28.7726,24.339,-4.4336
CsLa(PO3)2,17.0809,13.6379,-3.443
YMgZrHg,37.8035,30.7845,-7.0189
CdReAgIr2,60.2069,53.0289,-7.1779
Lu3Pa,42.1604,45.9494,3.789
SrLaTl,35.1061,32.311,-2.7951
SrLa3Os,36.3724,29.6669,-6.7056
SrZnAg,17.663,16.4095,-1.2535
KCa6,6.8437,7.0618,0.2181
PmNdGa2Pd5,18.7857,19.6373,0.8517
TaInSi,23.8892,24.6085,0.7193
Nd4YTm3S8,39.188,32.1802,-7.0078
PmZn2Ru,20.4575,19.8298,-0.6277
Te2PRu,26.4283,27.2633,0.835
Ba2AlW2,25.1158,24.1771,-0.9386
BaCuSb,18.2407,15.5398,-2.7009
Co2AsOs,25.1316,22.8947,-2.2369
Rb2Ge2P,8.781,5.3862,-3.3948
Na2La2Br7,19.5638,15.5525,-4.0113
NaTa3Br,31.8471,32.1935,0.3464
Tl2CdI,35.7887,36.4426,0.6539
Y4ZrCo10(B2C)5,48.8694,39.7177,-9.1517
Li4CuRu,4.8567,5.8104,0.9537
NaLa3Br,38.78,26.7226,-12.0574
Na6Ge2Pt,28.2266,22.539,-5.6876
CsScS2,44.6119,39.1965,-5.4154
ScCr3Mo,17.5056,16.3819,-1.1237
Cs9Na3Ca3(BO3)7,10.8275,8.7764,-2.051
CoHgAsSe2,34.5842,30.3997,-4.1844
ScCr2Mo,18.6652,18.3995,-0.2657
ScCrMo,21.8942,22.641,0.7469
Ba5Sc,1.0143,2.6997,1.6854
KGaC,23.0121,19.2041,-3.808
CaCI2,22.9532,21.1856,-1.7677
ScCrMo2,20.0815,21.608,1.5265
YMg2HgGe,13.28,11.6664,-1.6135