Formula,E_hull_DFT (eV/atom),E_hull_ML (eV/atom),Delta (ML - DFT)
RbIn3P,18.6815,16.1848,-2.4966
YIn2Si,32.2814,29.7963,-2.4851
PmNpMn2O6,64.4126,58.4241,-5.9885
Be2InFe,17.2746,13.5915,-3.6831
BeIn2Fe,19.7554,16.6363,-3.1191
Na2PuAsO6,11.8637,11.4904,-0.3734
Ce4PS3,32.6894,29.3793,-3.3101
Be4InFe,15.2646,12.3804,-2.8842
SmDyGeAu,26.5005,29.3932,2.8928
ReAgPb2,44.9923,44.3276,-0.6646
ZrSi3,29.4365,21.376,-8.0605
Ac2ZnPd5Pt2,34.3731,31.267,-3.106
MnNi(TeO3)2,33.1006,28.8276,-4.273
Th4Sn2C,51.9416,51.1111,-0.8305
ErMn2SnO6,79.1083,67.7347,-11.3736
Ac2ThPt2,67.6043,59.3994,-8.2049
CaIrRu2,28.0612,21.2804,-6.7808
Ac(BPt4)2,71.0253,51.303,-19.7222
HfMn2TeO6,74.5436,62.6049,-11.9387
YMn,49.6702,6.5569,-43.1133
Ac4PrPt4,66.8879,55.5285,-11.3594
FeAs2Au,31.7672,29.7415,-2.0257
La2ZrMnCu,61.9443,46.7988,-15.1455
PbC,24.9654,22.3381,-2.6273
AcPrPt10,78.837,56.1073,-22.7297
Ac4ThPt4,74.7276,64.3036,-10.424
ZnReIr2,38.8579,40.5996,1.7417
BaY2F8,16.1338,15.4781,-0.6556
Sc2Nb(IrRh2)3,53.9327,39.7983,-14.1344
ErZrPS,46.2607,44.7032,-1.5575
SmSnAu4,38.7614,40.5865,1.8251
Ti2GeRu,9.7719,12.4521,2.6802
CsSi3C,27.3571,18.5409,-8.8162
AcPrPt2,58.6892,41.0977,-17.5915
LuInRu4,19.5912,22.5872,2.996
Nd2MnCuO6,24.9326,24.5304,-0.4022
LiBeFe2,26.2642,20.9742,-5.2901
YMg4Ni,29.6359,26.403,-3.233
CaY2PuAs4,19.3428,19.9866,0.6438
TlCdP2,16.2643,18.8871,2.6228
HfNp2ScAs4,46.6001,40.4817,-6.1184
LiLu2Os,27.1593,29.9299,2.7706
AcMn(FeO3)2,39.8667,34.8118,-5.0549
Ac5Tl,62.1517,64.0577,1.906
Na2UInO6,8.3832,10.4248,2.0416
BeFeSb,31.4716,25.3597,-6.112
LuBi3,44.8581,46.4709,1.6128
BaNi2Sb,17.4302,12.9066,-4.5235
AcPr3Pt2,31.6248,25.4867,-6.1382
CoSiOs2,19.496,23.5209,4.0249
FeRu2Br,28.5686,20.5828,-7.9858
Sm4AuS5,41.4777,34.8832,-6.5945
SrInRu,16.8436,18.6666,1.823
SrPm5Pb8,39.4651,40.9808,1.5157
NaPm2SnO6,19.8224,17.7842,-2.0382
NaPr2SnO6,20.2705,14.53,-5.7405
Pr2Ni2Ir,14.3398,14.2233,-0.1165
NaTb2WO6,11.5313,13.204,1.6727
CsNa(TcO3)2,16.1781,14.5513,-1.6268
SiAgPt2,56.2496,39.7458,-16.5038
PPd3C,24.6279,21.133,-3.4949
InTcP2,30.4501,27.4524,-2.9976
InTcP2,30.0505,27.4524,-2.5981
InReSn2,26.0664,28.8924,2.826
Be3CdFe,16.4703,12.4688,-4.0015
Gd3SnRu,24.6448,26.3484,1.7036
Rb3Y(NbS4)2,52.827,39.6603,-13.1667
MnCdCo,43.3636,35.6396,-7.724
Sm4Rh2Au,34.4351,32.9173,-1.5178
ScTc2MoRh,82.9393,67.4113,-15.5281
Ac3AgPb3,49.939,51.7197,1.7807
TiTe2Pt,44.5129,38.5751,-5.9378
TiTePt,38.4972,32.0139,-6.4832
SrPdO3,0.0,0.0,0.0
Ti2Si2Bi,12.5073,13.1597,0.6524
LuInRu,22.8155,26.3526,3.5371
SmGdOs4,40.2124,42.1291,1.9167
Lu2InRu,25.4847,28.7763,3.2915
CdTe2P,26.964,26.4818,-0.4821
Cd2MoP,22.9785,19.1348,-3.8437
Cd2Pb,30.3745,31.6346,1.2601
Cd3MoP,23.4305,19.6921,-3.7384
LiBeCl2,6.905,5.2172,-1.6877
LiBeCr,5.4805,4.779,-0.7015
CdMo2P,21.877,19.4495,-2.4275
Na2EuPt,42.1502,33.4124,-8.7377
Ce3AgSn3,18.3225,20.6294,2.3068
Pm3AgSn3,18.46,20.8624,2.4024
Tb3AgSn3,19.3649,21.7691,2.4043
Ca2BeFe,26.0919,18.517,-7.5749
Sr2CoSi3,22.3773,14.001,-8.3763
CdCo2W,18.8057,21.1908,2.3851
CdCoW2,20.8004,25.9004,5.1001
K5Sr3I12,9.1028,9.936,0.8332
Mn2IrRu,68.89,55.2692,-13.6208
CdInSe2,33.7552,29.8082,-3.947
Te(Mo2Ru)2,24.813,22.7683,-2.0447
EuYPd,31.1628,27.8875,-3.2753
Ce4Pt3Rh,51.1492,40.0675,-11.0817
LaMgAl2Pd5,15.9003,15.4897,-0.4106
PbBr,0.0,0.0,0.0
PbBr,27.4798,0.0,-27.4798
Ce4Pt2Rh,46.1739,37.5084,-8.6655
Sn4PSe2,26.2212,23.9352,-2.286
Nd2AgTe,29.9385,29.2069,-0.7316
Lu2ZrTl,53.9093,51.7561,-2.1532
RbIn2TeS6,38.3517,29.08,-9.2717
MnFe2Ru,49.6516,37.4678,-12.1837
AcSnIO2,51.7468,43.6132,-8.1336
LiBeCo,11.1276,7.2923,-3.8353
Cs2NaAsO4,4.3266,6.6278,2.3012
Cs2CrP,34.5974,29.6262,-4.9712
EuYPd2,27.494,25.7726,-1.7214
SmY4Th3Sb8,38.7708,35.654,-3.1168
TaBe7,13.379,10.549,-2.8299
Ac2TlSbS6,50.3226,41.194,-9.1285
CaNiI2,17.2962,15.8758,-1.4204
Tl2Te4AsAu,40.8807,40.4723,-0.4085
KNdAg2,24.841,21.3044,-3.5366
Dy2YHoHg2,18.0059,18.2308,0.2249
GdErGa2,18.3051,20.5275,2.2225
HfRuW2,69.13,57.2459,-11.8841
KNdAg,19.6449,19.3816,-0.2633
Y4Er5Sc,20.7633,23.0387,2.2755
Zr2TiV,84.7773,69.0757,-15.7017
AcSnTeO2,55.7007,49.9128,-5.7879
CaNd2Sm,19.9206,21.8238,1.9032
Er2In8Co,20.0484,21.4112,1.3628
ThMgTi,22.7355,25.5444,2.8089
YbCuPb,20.6642,25.2651,4.6009
Na2PaMnO6,38.4456,35.6112,-2.8344
Fe2AgP,25.2063,20.5103,-4.696
Na2ThPbO6,26.2764,23.5283,-2.7481
Na2IrRhO6,13.9802,12.2042,-1.776
CdCoMo,13.8758,16.9148,3.039
Ac2PtF,55.1218,49.774,-5.3477
Fe2AgP,25.2041,20.5103,-4.6938
Na2PmIrO6,4.5339,7.145,2.6111
CdCoIr2,28.3802,31.6204,3.2402
Na2PmNpO6,4.824,8.1714,3.3474
Zr2AgSn,56.2748,49.7932,-6.4816
RbNa2OsO6,3.6183,5.6357,2.0175
CrPb2,32.8646,35.8806,3.016
Pr(NdAs)3,0.0,0.3084,0.3084
TiBiTe2I,33.3847,32.7218,-0.6629
Cs2NaTeO4,10.1166,10.4722,0.3557
Rb(SnAs)3,21.0211,19.1856,-1.8355
ZrAgSn3,39.0544,34.3538,-4.7005
RhPb6,47.8412,46.7481,-1.0931
Be3Te,8.1813,11.4987,3.3174
AcPm2(AgSn)2,30.7255,30.2821,-0.4434
La2CoCu,44.7261,33.2854,-11.4407
Sm2Si5Pt3,31.8291,22.146,-9.6831
Tb3Y7Er,18.9312,20.272,1.3408
BePb,26.9846,29.5258,2.5412
Be3Te,7.691,11.4987,3.8077
Y2(MgIn)3,13.221,13.0101,-0.2109
Na2TmUO6,5.3376,8.6714,3.3337
TmTh2ZrP4,32.9341,33.3545,0.4204
Gd2YTl,30.9037,33.5725,2.6688
La2Co2Cl,17.165,14.5602,-2.6048
Ce2Sm2Si4Pt,27.2218,22.4822,-4.7396
Be2Pb,14.3956,17.1977,2.8021
ZnInBr2,12.3263,13.4779,1.1516
Fe2AgP,25.1664,20.5103,-4.6561
RbPm2PbO5,3.3946,6.4795,3.0849
ZnIn2Br,14.6197,15.3094,0.6898
PaAlCo,41.7975,35.9344,-5.8631
Cd(CoRe)2,38.2837,34.8644,-3.4193
ZnInBr2,12.4009,13.4779,1.077
SiOsAu2,37.932,38.4038,0.4718
Zn2CdCo2,17.1594,11.0228,-6.1366
NaGe(AsO3)2,4.6806,5.2042,0.5235
NaGe(TeO3)2,7.3338,6.4493,-0.8845
CdFeOs2,35.5304,33.9634,-1.5671
Ga2PRu2,11.5474,12.0723,0.5249
RbSiPd2,8.9371,8.9504,0.0133
BaSi2Ir,18.8685,16.7917,-2.0768
ZrCdOs,32.0324,36.3006,4.2682
KHf,50.9786,33.5845,-17.3941
ScCdCu4,18.785,16.8265,-1.9585
Cd2CuRu,13.3403,15.6941,2.3538
MoAs2C,18.3156,16.4482,-1.8674
NaGe(AuO3)2,7.9729,9.4423,1.4694
NaYTi2O6,11.8258,9.9893,-1.8366
HfAsW,36.1292,32.1464,-3.9828
MnRu7,26.659,26.1585,-0.5006
NaTmTi2O6,6.1368,5.5262,-0.6106
MoP2Pb,21.135,19.6086,-1.5265
NaPr2PbO6,6.3056,5.0755,-1.2301
ZrP2Pb,33.2082,32.281,-0.9272
NaNbTl2O6,20.0042,19.4473,-0.5569
HfAsW,55.7016,32.1464,-23.5551
BaIn9Ni2,17.8941,17.2123,-0.6819
NaNi(TeO3)2,14.9907,12.5506,-2.4401
NaPu(NiO3)2,13.2527,13.2792,0.0265
LiCrIr2,25.138,26.2539,1.1159
Rb5Sr3I12,6.7031,7.7245,1.0213
NdSmY2,13.8228,18.2343,4.4115
Cd2Cu2Au,17.4255,19.3812,1.9557
Cu(ReNi)2,43.3357,29.2242,-14.1115
Cd2CuAu,23.0541,24.2898,1.2356
NdHg(H2Pd3)2,10.6923,11.8539,1.1615
In2RhCl,22.9804,20.1137,-2.8667
SrDyO3,0.0,0.0,0.0
Tb3Si2Ni9Ge,13.7329,12.2113,-1.5217
CdCoRu2,14.9502,17.91,2.9597
Ta2HgPb,32.0263,34.9121,2.8858
SrSn4Pt,26.268,23.9831,-2.2849
Sr6Cd2Hg,13.631,12.9067,-0.7243
CsReGe3,32.1473,27.4463,-4.701
ReGeO2,30.5328,29.4374,-1.0954
Cd(CoRu)2,6.7354,11.8286,5.0932
NaU(PbO3)2,11.5757,14.9221,3.3464
Sr(AuI3)2,24.4424,25.2863,0.8439
TiTeAuI2,33.2498,28.1824,-5.0673
MoP2Ru,17.6948,15.8177,-1.8771
Fe2RuBr,25.3651,19.6316,-5.7335
Tc5Sb,84.9146,71.0004,-13.9142
CdRuBr2,20.0579,17.5955,-2.4625
TiRu2Br,17.6316,17.5574,-0.0742
Nd2YGa5O12,3.4437,3.6198,0.1761
TiSnI,23.1757,18.8487,-4.327
Pm2Pr6YMg,1.2376,2.7512,1.5136
LaRhCl,34.2069,23.9198,-10.2871
CuSbRu3,22.3094,21.2704,-1.0389
LiBeIr2,22.4853,25.0118,2.5265
NaAcTi2O6,9.5546,9.1367,-0.4179
Tl2MoP,39.383,35.0862,-4.2968
CsTe2P,24.3696,24.6101,0.2405
NaTi(TeO3)2,10.8124,8.5042,-2.3082
Al2CdCu2,6.159,7.1107,0.9517
NaPm2TiO6,10.9172,11.6584,0.7412
Cs2ScGaO4,40.4155,36.9767,-3.4388
LiMgNi2,0.5665,4.2896,3.723
AcNi2BiO6,7.2395,10.3495,3.11
InCo3Cl,10.0267,11.0558,1.0291
RbSc3Co,5.4957,6.2087,0.713
Y3Er(ThBi2)4,47.5387,49.7949,2.2562
La2RhCl,38.0908,26.8178,-11.273
Ti3TeBr,14.5254,14.8748,0.3495
ZrCuRh2,50.5607,39.7955,-10.7651
TaHgPb,30.8877,33.1715,2.2838
Er2TlV,60.1027,54.8214,-5.2813
InCoCl2,8.248,10.5041,2.2561
Mo2PRh,29.1567,24.5538,-4.6029
BaLaAl,30.625,20.5981,-10.0269
CuNi2TeO6,7.2545,8.0436,0.7891
CrIrOs2,35.1155,38.0542,2.9387
NpNi2GeO6,10.8334,10.2076,-0.6258
Ba2CaOs,12.4545,14.7669,2.3124
CrIrOs2,35.5556,38.0542,2.4986
SrSc2CrRh,24.6715,18.9018,-5.7698
Sm5(YHo)2,23.2808,26.5521,3.2713
GaCuCl,5.259,4.7108,-0.5482
NaFe2BrF,16.8903,14.4481,-2.4422
CoCuRu2,27.4029,24.4303,-2.9726
CrIr2Os,35.4066,38.268,2.8615
BaTiTe2I,31.0238,27.5409,-3.4829
CdSb2Te,37.6992,32.4665,-5.2327
CdSbTe2Pb,40.8263,37.6539,-3.1725
Nd5(YHo)2,23.059,26.3248,3.2658
NpNi2PdO6,8.5932,10.9001,2.3069
CdSb2Te,37.9896,32.4665,-5.5231
CaBPtO5,15.2357,12.6187,-2.617
Ni2HgIO6,11.2599,10.8247,-0.4352
Nd5(YHo)2,23.0767,26.3248,3.2481
RbTl4Ag,39.5456,38.5798,-0.9658
PaNi2RhO6,12.8296,12.2695,-0.56
SrNi2IO6,13.6901,12.4696,-1.2205
Lu2ZrSc,42.6878,40.037,-2.6508
InCuRu2,16.2271,17.721,1.4939
Tb2SiNi3,15.4053,15.4045,-0.0009
Ta2SbTe,40.2922,40.0031,-0.2891
Ba2YPtO5,14.2038,11.8265,-2.3773
ZrCuIrO6,8.8189,9.6746,0.8557
Th2PaPb,62.9815,65.8967,2.9152
Ni2SnTeO6,27.7665,22.6137,-5.1528
SmPu(NiO3)2,10.3749,12.5786,2.2038
YHo2Hg,26.5546,25.0506,-1.5039
TbSiNi,0.0,4.6763,4.6763
MnP2Ir,43.9373,37.7,-6.2373
ThPa2Pb,63.3653,66.3524,2.9871
NpNi(BiO3)2,10.9619,14.3786,3.4167
Zr2CuRh2,52.5309,42.4819,-10.0489
InCuGe,8.3041,10.6982,2.394
Li7HgAu12,28.6748,29.084,0.4092
AlNiAgSe,17.9142,16.3184,-1.5959
TlCd2Co,22.3845,23.9086,1.5242
TcNiIr2,46.4822,45.6711,-0.8111
CdPPb,15.6556,19.9323,4.2767
Tl2NiSbO6,21.6437,21.5417,-0.102
Ac2Ho(AlHg4)3,9.1654,9.9192,0.7538
Ce2TmBi3,39.9449,42.1882,2.2433
Ba2YPbO5,9.9443,9.642,-0.3023
NiTe2PbO6,10.5301,10.7934,0.2633
Si2RhPb,33.2929,26.5814,-6.7114
Li2HfRu,34.618,27.4652,-7.1528
NiBi2TeO6,11.0552,12.9715,1.9163
Os2RhCl,35.2823,33.6974,-1.5849
Y2(HoTm)3,25.5976,27.9623,2.3647
Tb2Y3ErRh6,34.0302,28.1602,-5.87
BaCaIr,26.5503,20.5915,-5.9588
K(In2Pd)6,18.4304,18.953,0.5226
SrVAg2,48.2453,38.219,-10.0262
Ac2NiTeO6,10.7016,13.1424,2.4408
Cs(ZnB)2,15.4422,12.5864,-2.8558
NpTl2OsO6,20.4248,22.6185,2.1937
Pu(PaSi)2,37.5378,39.6671,2.1294
RhPbCl,35.3013,31.2205,-4.0809
ErPu3Ga4,34.5597,36.5341,1.9744
Er5ScCu4,23.9573,24.0391,0.0817
TaCu2Sb,25.7922,23.6078,-2.1844
PaBi2PdO6,23.8895,24.6092,0.7197
Sm2InSi3Pt4,46.2576,34.0631,-12.1945
Pu2PaSi2,37.6867,38.5008,0.8141
Ac6TePt2Se3,61.1975,54.9524,-6.2451
Ta2CuSb3,36.3638,32.4837,-3.8801
Ba(CaAl)2,10.6259,8.7077,-1.9182
AcCuBiAu,42.9005,45.1926,2.292
TaBAs2Se,34.0163,32.2512,-1.7651
Ni2IrRu,22.6212,22.2428,-0.3784
Cs3La2HfSe6,49.1776,38.8625,-10.3151
Cd2GaSn2,17.8197,18.8893,1.0695
CsIn2Ag,21.3489,20.4658,-0.883
Ce2Tm5Bi4,38.0727,39.6285,1.5559
LiTb2Gd,20.9318,23.4852,2.5533
CoC,0.0,-0.0,-0.0
CaTbGd2,22.6197,25.3134,2.6937
CaGd2Os,26.2529,29.7886,3.5357
Ta2CoCu,43.6149,35.5118,-8.1031
TiTeRh3,39.7296,30.6537,-9.0759
Cd2RuWO6,14.3202,13.008,-1.3121
Sr2Ga5Pt,19.3705,17.1133,-2.2572
TbGdAg2,29.3352,26.8581,-2.477
Mn2SbC,68.8135,51.5669,-17.2465
Li4Co3Ni3(WO8)2,22.3368,18.3485,-3.9883
Gd2MgOs,26.0367,28.6036,2.5669
Er3TmGa4,18.4786,20.7477,2.269
ReNiIr2,52.5697,44.7024,-7.8673
CeAlSi2Ir5,34.539,34.647,0.108
LiBeOs2,22.1001,24.6833,2.5832
Ta2CoCu,43.9133,35.5118,-8.4015
Tc2PI,49.0704,40.7291,-8.3413
PtRhCl,47.9805,35.6915,-12.2891
GaRe3As,29.779,32.2577,2.4787
AcNd2(SmEr)2,31.8335,33.6001,1.7665
RbU(PbO3)2,9.3359,10.6373,1.3014
Rb2TmSbO6,13.0831,13.0467,-0.0363
Th2SiBIr6,40.146,42.8674,2.7214
BaCaPb,18.8129,20.8708,2.0579
La3Y2ThBi6,47.1108,45.1682,-1.9426
Rb2SrReO6,13.1784,11.7823,-1.3962
AcLaI2,39.666,36.3518,-3.3142
Ce4NdTh,31.9122,34.2675,2.3553
Sr2Al3In4Ag,14.6518,14.8017,0.1499
Rb2ZrTcO6,18.0741,15.4162,-2.6579
LiBePb,18.9879,19.7698,0.7819
AsIrPt2,58.2102,46.5433,-11.6669
Ti2NbI,44.1057,39.6653,-4.4404
RbSr2MoO6,4.2792,5.5712,1.292
RbSr2TeO6,24.4061,21.3214,-3.0847
Ta2PIr,36.2827,36.5015,0.2188
Ac2IrPt3,65.8061,54.7987,-11.0074
La2SnRhO6,39.5092,33.8274,-5.6818
SmY2Ta,40.8792,37.2017,-3.6775
RbPr(TeO3)2,5.5677,3.5881,-1.9796
TaP2Ir,22.0664,21.9904,-0.0759
TaRh(PbO3)2,17.351,17.4285,0.0775
ScBeSb2,27.4481,21.4012,-6.0468
AsIr2Pt,46.7529,44.5426,-2.2102
RuPtC2,60.5488,39.5808,-20.968
BeSbC,35.9114,28.6433,-7.2682
TbHf(UAs2)2,42.4809,39.387,-3.094
TiNbTeI2,47.5301,41.6904,-5.8397
Ir3Pb,46.3958,49.9688,3.573
Bi2PtRhO6,24.6078,21.9151,-2.6927
BaCaTa2,20.7747,23.0232,2.2485
Pr2ErRhO6,3.2335,2.3119,-0.9215
PtRh(PbO3)2,24.3523,20.9271,-3.4252
Y2TlSb,30.1672,30.3334,0.1662
EuSnAu2,35.294,37.1433,1.8494
CaTbInAg,20.3086,20.276,-0.0326
Ac2SnRhO6,37.1873,32.6305,-4.5568
Ir2Pb,40.1974,48.5555,8.358
Cd2SnSeO6,29.386,24.4767,-4.9093
Tl2BiSO6,21.2168,21.7639,0.547
Tb8Al2Bi,24.6203,26.2643,1.644
ZrMo2As,26.3453,27.207,0.8617
ErCr2SiO6,6.8545,6.9074,0.0529
ZrCuSeN2,31.7726,27.2673,-4.5053
Sr4Zn3Ga,10.4015,11.5351,1.1337
Ta2CuAs,14.9447,19.6718,4.7271
CdSi2Te,22.9498,20.7372,-2.2126
NdRu(PbO3)2,9.5087,12.0039,2.4952
TlCd2TcO6,12.381,13.7358,1.3548
OsRu(PbO3)2,12.7153,12.8662,0.1509
KRb3Au,8.1738,8.2204,0.0466
Bi3Pb,54.1824,55.3608,1.1784
CdSiTe2,29.7227,28.3344,-1.3883
NiPd,12.1617,5.8994,-6.2623
ZrCdGaCu,34.6437,30.3066,-4.3371
CdSi3Te,22.4711,17.2655,-5.2056
TaTe2AsSe,48.7171,45.1824,-3.5347
MnC2,66.9059,45.874,-21.0319
Ga2Ag2Bi,23.8397,22.3021,-1.5376
V2O5,28.9961,22.1783,-6.8178
PmPrRh2,28.9128,23.6741,-5.2387
Y2NbC2,64.5845,50.3694,-14.2151
BaTl2SbO6,20.2536,20.444,0.1904
Rb2InSO6,14.5671,14.3052,-0.2619
NdZrCuPt,54.3485,45.5122,-8.8363
Tb5(YHo)2,24.1565,27.4483,3.2917
TlCoCu,42.9776,36.2685,-6.7091
NaSrBiSe3,52.5433,43.305,-9.2383
Dy2ThPaTc2,54.3574,52.8642,-1.4932
RbLiHoI5,14.6621,16.6895,2.0274
Sm6YTm2Sc,19.149,21.3699,2.2209
YCr2SiO6,12.9001,11.4396,-1.4604
TlBi2SbO6,26.2597,26.485,0.2254
Nd2ScCoO6,21.5569,21.682,0.1252
RbAcSeO5,7.2069,8.96,1.7531
Pm2ThSi2,22.2994,23.9163,1.6169
Hg(SbBr)2,32.1858,28.4602,-3.7256
LiBePt,30.6475,22.574,-8.0735
CaSmSb2Pd5,23.8031,21.6651,-2.138
Sc2MnCrO6,80.3232,69.2679,-11.0554
BeSnPb3,39.4033,37.2186,-2.1847
Ca3BeIn,13.5491,10.6176,-2.9316
RbFeCu2,19.7542,15.7295,-4.0247
Cs(SrGa)2,13.693,14.5035,0.8105
Tc2NiSb,56.9815,46.6072,-10.3743
PuPa2Ga7,26.6105,28.0934,1.4829
CaBeIn2,18.9478,15.4967,-3.4511
Cs2PmScO4,33.3218,32.276,-1.0458
Rb(Zn2Si)2,9.7355,8.171,-1.5645
P2Se,13.7405,12.3193,-1.4212
BaCaW2,21.8498,24.7484,2.8986
Cs2AcScO4,38.3497,36.8069,-1.5429
AlCoMo2,16.6621,15.1378,-1.5243
RbW,0.0,5.1667,5.1667
TmLuAl2,17.1664,19.9102,2.7438
PN,0.0,28.9918,28.9918
TaBeVSe2,63.414,49.546,-13.8681
CaBr,4.2227,7.2963,3.0736
TePtAu,59.7363,51.0985,-8.6378
Te2PtAu,51.2369,45.0269,-6.21
CrIn2SiO6,12.1144,11.3389,-0.7755
Tl(OsRu)2,33.9617,37.1192,3.1575
ScFe2SbO6,41.3322,35.2668,-6.0654
VGa2SiO6,21.4341,18.038,-3.3961
VSi(NiO3)2,15.3214,13.6897,-1.6317
TePtAu2,56.641,50.5732,-6.0678
Co2C,20.4067,16.2325,-4.1742
ScNi(BiO3)2,30.4757,29.7567,-0.719
ScBi(PbO3)2,34.545,33.6642,-0.8809
NiRuC2,39.4469,32.2582,-7.1887
AlCo2Mo,14.5168,12.7939,-1.7229
Tm2LuAl,24.3908,27.4732,3.0824
Tb3Y(TmP3)2,17.7147,19.0845,1.3697
Y2Ho2Er2Pd,27.823,28.34,0.5171
Ac2ScNiO6,30.1458,29.9764,-0.1694
ScNi2TeO6,25.9556,23.9177,-2.0379
Nd2ScNiO6,22.0985,22.093,-0.0055
Tb2ScNiO6,22.3789,22.3777,-0.0011
La2ScNiO6,39.6373,36.8277,-2.8096
Ti2TcSb,29.5273,27.8541,-1.6732
ScNi2WO6,26.3301,25.2159,-1.1142
ScNi2PbO6,32.2249,29.8618,-2.3631
HfGeRu,38.2118,44.8401,6.6283
CaMnP4,28.9796,23.1462,-5.8334
CsLaI2,26.517,23.7017,-2.8153
ScTa(PbO3)2,36.9201,35.1533,-1.7667
BeCrRh2,20.2841,16.2895,-3.9946
BeCr2Rh,16.6276,13.6225,-3.0051
CaHfRu3,40.3646,33.2052,-7.1594
Y3Ho(Pu3Th)2,53.0344,54.7689,1.7344
AcAuNO5,7.7399,10.2488,2.5089
Hf2GeRu3,57.0476,45.3872,-11.6605
YHo3Pu4,48.6097,50.3728,1.7632
SrOsRu2,22.6085,25.7294,3.1209
MgAs,0.0199,0.0,-0.0199
ScMn2VO6,94.0664,80.6165,-13.45
MnAlAg2,41.3399,32.1343,-9.2056
CaAuBr2,18.0103,19.1731,1.1628
HgMo4Se,18.8062,19.3209,0.5147
ThPb3,55.7882,58.4734,2.6852
Si2OsRu2,17.8828,16.0867,-1.7961
Ba2CePrO6,3.7814,4.0199,0.2385
BaCe2EuO6,7.0,6.9124,-0.0875
Na(InSb)2,27.6569,26.2576,-1.3993
IrPdRu,31.6415,30.0919,-1.5496
RbTiIr3,29.0077,30.3243,1.3167
BaY4W,39.747,30.8998,-8.8472
Ba2TbCeO6,12.5415,10.2639,-2.2776
ReRhCl,32.5606,29.1677,-3.3929
YScTl,23.7131,25.6159,1.9028
Ba2YErS4,44.159,34.6814,-9.4776
CeEu2WO6,12.8429,13.8745,1.0316
EuTlPbAu,44.3571,46.081,1.7239
Ac2CdSeO6,18.294,19.4319,1.1378
Ca2NiF,6.3503,4.255,-2.0954
SiOsRu2,28.913,26.297,-2.616
SiOsRu2,28.6485,26.297,-2.3515
Sr2ErSbO6,7.4745,9.771,2.2964
Cr2GaSiO6,11.9155,10.0975,-1.8179
Sr2HoTcO6,8.3292,7.9258,-0.4034
ZrCu2B,38.6571,31.494,-7.1632
Co2SiTcO6,23.5837,20.4202,-3.1635
CrRu3W,44.0652,32.1092,-11.9561
Y2NbC2,73.6165,50.3694,-23.2471
ZrRe2Ge,52.1501,48.2497,-3.9004
Cr2SiTcO6,13.8347,11.7011,-2.1336
LiTmAl3,6.2999,8.6106,2.3107
Ba2SiPd2,5.7336,6.3062,0.5726
Si2PIr,25.7143,21.3591,-4.3553
RbMnBr3,21.7954,19.4952,-2.3003
YHo3Al,27.8511,26.7843,-1.0668
CsAgSnTe6,33.319,31.4769,-1.8421
NdSm3(ClO)4,7.5626,9.5366,1.974
TaNiAg,24.9264,25.5375,0.6111
YHo2NbN4,30.2438,28.9454,-1.2983
V2SiMoO6,34.444,27.8509,-6.593
Er2ThRu2,31.0049,34.2769,3.272
RbZn2Br,5.3396,6.7265,1.3869
Al2P,20.1303,18.1369,-1.9934
VFe2SiO6,19.5043,15.1031,-4.4011
Ta2PdC2,34.1642,30.8734,-3.2908
SmU(PbO3)2,10.5877,14.8871,4.2994
SmBi2PtO6,21.8733,20.847,-1.0263
Er2Be4Si3Ru,24.6295,21.1189,-3.5107
HfMoP,37.2825,24.2893,-12.9931
Rb(ZnGe)4,5.8389,6.2809,0.442
BeCd2Sb,22.1302,19.5313,-2.5989
SmNpTl2O6,10.8777,14.8089,3.9312
Ba4Na2Pd,9.4345,8.5469,-0.8876
BeCd2Sb,22.1179,19.5313,-2.5866
NdBrO,9.7579,12.4499,2.692
BeCd2Sb,22.0553,19.5313,-2.524
Y2ScTlRu,23.4419,21.5672,-1.8747
Sr2CePuO6,6.8287,8.5526,1.7238
BeCdSb2,28.4338,23.136,-5.2978
Sr2CeHfO6,10.6635,10.721,0.0576
SrTlSi3,31.4279,23.508,-7.9199
Sr2CeSmO6,0.0,2.1414,2.1414
Ce(HCl3)2,0.5784,3.6531,3.0747
KCuRe2,26.0241,28.0927,2.0687
FeNiSe2,48.0124,36.6922,-11.3202
Sr2CdTeO6,26.0135,23.1346,-2.8789
Sr2NpCdO6,10.7412,11.1967,0.4555
LiHfNb,74.3273,57.6661,-16.6613
Bi2Sb2Au,49.52,46.9127,-2.6073
YSc2TlRu,21.6936,19.8445,-1.8491
BiSb3Au,47.8232,41.8288,-5.9944
YScTlRu,25.7694,24.6363,-1.1331
TbLuInOs,30.1797,33.9083,3.7286
AcAl4Pt,22.138,20.2403,-1.8977
Zn2InF,8.2058,9.9719,1.7661
Pr2NdSi2,2.6699,3.623,0.9531
AcAlPt2,60.5195,49.3114,-11.2082
SbRhCl,32.4585,24.8251,-7.6334
InBi5Pt4,64.8918,55.0863,-9.8054
Li2BeOs,11.6333,13.0573,1.424
Ac2AlZn4Pt3,42.4013,35.1429,-7.2583
TlCoHg,19.9203,20.9901,1.0698
In(BiPt)2,56.7941,48.0755,-8.7187
Sr2ErNbO6,9.4513,11.5671,2.1158
Sm3Y(PuTe3)2,39.1833,39.2754,0.0921
Sm5(Y2Er)2,21.9766,24.0351,2.0585
Sr2PmPtO6,5.9639,6.7966,0.8328
TbSi2Ni5,11.4537,10.9275,-0.5262
CsMnSi3,36.6451,26.6345,-10.0105
DyI2,23.2639,26.3637,3.0998
Y2TeRu2,20.0374,16.6395,-3.3979
Sr2TbPaO6,1.2172,6.2431,5.0258
Sr2DyTcO6,13.5844,10.8669,-2.7175
MgCdSnBi,24.3171,25.6543,1.3372
Tb2Cr2I,12.3233,15.4811,3.1577
Rb(ZnGa)3,5.4223,6.3682,0.9459
NaPaCd4,28.3139,28.7553,0.4414
SrCd2IrO6,14.9257,14.5492,-0.3765
SrPu(BiO3)2,22.5795,22.9975,0.418
Sr2TbPuO6,6.3506,8.8769,2.5263
SrTcAgO4,22.025,19.658,-2.367
SrBi(PbSe2)2,58.6032,50.7801,-7.8231
Sr2YBiO6,8.5648,10.7106,2.1459
AcTmPt2,67.4425,49.594,-17.8485
V2SiIr,70.9982,60.0053,-10.993
Sr2NpUO6,5.3381,10.2057,4.8676
Be3ReW,23.9203,22.1505,-1.7699
Sr2AcWO6,15.6122,16.1338,0.5217
Sr2PuUO6,9.8489,12.6948,2.8458
Ba2AgP,14.5744,11.7729,-2.8015
Ba3AgP,14.7378,10.7408,-3.997
ReAs2Pb,28.5647,30.8283,2.2636
Ce4FeSb,24.0194,24.6163,0.597
TbPmNi,19.0941,22.191,3.097
ReAs2Pb,29.0937,30.8283,1.7346
ReAsPb2,39.657,41.5743,1.9173
ReSiPd3,22.6449,22.5192,-0.1256
ReAsPb2,39.0719,41.5743,2.5023
PC2,38.5075,23.5976,-14.9099
Re3SiPd,33.5143,33.4033,-0.1111
SrPt(PbO3)2,14.4696,14.8385,0.369
PrLuSb,24.0935,22.8786,-1.2149
CaGaFeSn2,23.2384,21.0958,-2.1427
Sm6As2S3,29.3812,26.8703,-2.511
Ac2Ce(AsO)2,23.7472,24.7941,1.0469
Zr2CuRu,55.148,47.9044,-7.2436
Y9(Co13P6)2,28.5627,20.4592,-8.1036
SrRh(PbO3)2,10.1945,11.8499,1.6554
SrCd2RhO6,5.4007,5.6308,0.2301
SrPr2RhO6,2.6118,1.3075,-1.3043
SrPm2HfO6,18.6693,17.3564,-1.3129
CsGeTe2,29.3338,29.6723,0.3385
TaAsSe2,50.3207,45.7463,-4.5744
Sr2CoTcBi,36.8931,34.2309,-2.6622
TlMoOs2,41.3457,36.9603,-4.3853
Y2AlRh2,30.0907,22.3165,-7.7742
ZrTiCu3,27.6762,23.1204,-4.5558
Ac2TbDyO6,7.5028,12.0472,4.5444
Ac2TbHfO6,18.7245,18.8194,0.0949
YAgSn,31.0833,23.5963,-7.487
TlMoOs,41.0376,40.0179,-1.0197
AcTmAsPt,47.7492,43.1376,-4.6116
Ba2DyTcO6,2.7834,4.2422,1.4587
CsAc3(TeO3)4,19.6757,18.6649,-1.0107
Ac2TbTmO6,7.5848,12.3695,4.7847
LiLa4Br,42.9116,30.553,-12.3586