Formula,E_hull_DFT (eV/atom),E_hull_ML (eV/atom),Delta (ML - DFT)
Sn3PtI,36.2472,30.7402,-5.5071
SnHgRh,23.0623,19.2325,-3.8297
Cs2BaNpO6,10.4765,12.2528,1.7763
Ce3TlZn8,15.3652,16.6164,1.2512
Sc2SiAg,30.8725,26.9485,-3.924
ScSb2SI,42.9377,36.3123,-6.6254
Li(AgTe)2,29.2255,25.8679,-3.3577
LiTb2Sb,24.1094,23.3749,-0.7345
La3Y2Si3,36.8129,26.3922,-10.4207
TmCoGe2Rh,20.1654,19.2201,-0.9453
DyHo2Pd,0.0,0.0,0.0
Ac2CoAgSn6,24.3615,25.4554,1.094
FeSnP2S,30.7606,28.1058,-2.6548
NbBr2N,42.519,36.1535,-6.3655
GdScSiAg,36.7358,32.1275,-4.6083
MoPAu2,37.4449,33.8803,-3.5646
Li2Zn2Pt,20.7277,16.4663,-4.2614
Li(CBr)2,35.2758,25.5182,-9.7576
SrMoAu,25.8281,27.7444,1.9163
Nd2YEr,23.1464,26.4243,3.2779
Zn3BSb,18.4333,14.531,-3.9023
PmPrTm2,20.3489,22.4539,2.105
NaCa2O,30.7665,27.2859,-3.4807
LiCaEuZn,11.7551,11.6747,-0.0804
ScSiAg2,33.2138,26.9895,-6.2244
Ag2SI,32.7224,25.9178,-6.8047
CuAgSb2,32.1224,26.2561,-5.8663
Re2AgGe,44.4813,39.0101,-5.4711
HPbF5,8.2861,11.4573,3.1712
ReAgGe2,36.5991,30.078,-6.5211
Rb3MnZn,23.2785,17.7404,-5.538
Li2ZnGa2,2.4035,4.034,1.6305
SrTb2Pm,22.9778,25.667,2.6892
Pr2As4Ir3,21.0226,20.2853,-0.7373
Ir4OsRu,41.5237,43.0932,1.5695
Li(PrAg)2,6.9494,6.0589,-0.8905
AgSbAu2,39.4919,37.0235,-2.4684
LiNd2ThTe5,29.9605,30.6416,0.681
Li(NdAg)2,18.7225,17.8734,-0.8491
AlCd2Si,24.5016,21.7031,-2.7985
OsRu2Se,23.6852,26.7609,3.0757
Mn2Si2Pb,56.2991,44.1488,-12.1503
Zr2TlNi2,45.0128,41.7488,-3.264
Li(AlAu)2,18.4106,19.4634,1.0528
CuW2Se,25.9629,29.2429,3.2799
SmEu2Zn,22.392,23.7169,1.3249
Zr2Te2I,54.4534,48.0055,-6.4479
Y2TlHg,37.5938,31.7148,-5.8789
Ba2LiPt2,36.8383,25.7225,-11.1158
AcTmZn3,20.567,23.5608,2.9937
BeTe2Pb,34.3421,33.9455,-0.3966
RbNa2CuF6,5.7325,6.4382,0.7057
BaSnMo3,28.9078,22.2098,-6.6979
BaSr2Mo,12.856,12.5857,-0.2704
Ce2Zn4AgAu3,24.9649,25.4129,0.448
EuZrZn2,35.3145,32.3145,-3.0
SmY2(Er2Tm)2,25.8062,27.9746,2.1685
CdCu2P,13.8482,13.7544,-0.0938
Tb2CI,27.6494,27.451,-0.1984
Cd3TcGe,33.0588,29.8517,-3.2072
NaZr2TaPd,56.1534,48.7729,-7.3806
YCrC2,51.9381,42.5714,-9.3667
ScV2Cu,83.5023,65.0168,-18.4855
Sr3RuC,26.5029,23.5306,-2.9723
Ag3PbI6,28.2168,26.0433,-2.1735
CoAu3,34.2747,37.7516,3.4769
Ba2SrFeGe,13.9885,11.7631,-2.2254
SrRu2C,22.2949,22.0347,-0.2602
Pa4RuPt,52.7301,53.0452,0.3151
ZnGeIr2,24.5778,26.7047,2.1269
AcEuZnPb,37.9167,39.7005,1.7839
ThZrZn3,33.0291,33.3879,0.3588
SmDy2HoTm2,23.8764,28.0987,4.2223
Tb2Ho2Sb3,34.0746,31.474,-2.6005
AlSiMo2,25.09,21.131,-3.959
VRe2I,51.359,47.8278,-3.5313
AlZnPt,33.1011,25.9632,-7.1379
SmY2ErSc,15.8926,16.9087,1.0161
Al2SiMo,24.1027,19.0171,-5.0856
SrOsSe2,38.4791,34.883,-3.5961
SrOs2Se,37.7598,37.0673,-0.6924
FeSb2TeN,35.8737,29.5807,-6.293
CsCa2IrN,23.346,19.1873,-4.1587
Al2SiMo,23.8878,19.0171,-4.8707
Sm2Y(ErSc)2,20.3748,21.5125,1.1377
SmYEr3Th,26.8381,31.0558,4.2178
CaPuSi4,25.6799,20.4549,-5.225
NaTlVGe2,45.7735,38.9617,-6.8118
Li(CuAu)2,21.5125,23.2323,1.7197
Li(CoGe)2,1.244,3.5947,2.3507
Sc2GaCl,22.2391,22.5933,0.3541
SmYErSc,20.6047,20.8663,0.2616
Sm3YErTh,25.3437,28.9158,3.5721
Al2BiAu2,27.2288,29.6987,2.4699
TiCoS4,50.3785,36.7155,-13.663
TaPdRh,34.0688,32.5172,-1.5516
Li(TbCu)2,9.2462,12.1645,2.9184
SiGeAu,19.492,19.4906,-0.0015
Li(ZrSb)2,51.131,42.297,-8.8341
Al4SbSe,17.7164,15.718,-1.9984
CaEuYEr,24.2532,22.7635,-1.4897
NaTeOF2,26.916,23.5217,-3.3943
DyHo2Si,24.4511,24.8069,0.3559
GaGeAu2,24.7536,27.5328,2.7792
EuZnPd,0.0,3.1314,3.1314
Na2TiAgC,35.6949,26.016,-9.679
AlSiBr,24.3746,19.6002,-4.7745
LaThSc,34.8193,36.1151,1.2958
Zn7Tc,18.2308,17.0953,-1.1354
SmYErAl,32.7769,29.5326,-3.2443
Y(TiPd)2,18.4984,17.3089,-1.1895
Pr2AgGe3,3.9369,4.804,0.8671
Li2ZrSb,35.6748,29.7331,-5.9417
ZrCu2Pb,36.56,35.9036,-0.6564
ZrCuPb,35.8508,35.4872,-0.3635
LiZrSb,47.897,39.9464,-7.9506
KBa2Br2,5.5604,5.0899,-0.4705
Rb2TcP,28.201,22.8179,-5.3831
ZnGeIr,25.3474,22.6319,-2.7155
RbTc3P,65.71,52.0548,-13.6551
Sm(YEr)2,17.1795,20.8049,3.6254
Tl2IrPt,59.024,53.6218,-5.4022
Sc2OsS,36.2929,35.9161,-0.3769
Hf2Be2Co5W,33.0492,24.9218,-8.1274
Tb4TeRu,9.3775,14.9514,5.5739
CaDy2YHg4,10.2802,10.3578,0.0776
Tm8Tl2Ag,34.2522,35.0315,0.7793
In2IrBr,24.054,25.3701,1.3161
CuNi7Ge4,13.5826,10.3736,-3.2089
NaLiCu4,8.6901,8.9398,0.2497
BiSb3Te,47.2504,40.1679,-7.0825
CuNiGe,0.0,0.0,0.0
NaFeIF2,18.6488,16.8215,-1.8273
Na2MnNbAl,61.0547,51.8914,-9.1633
Li(GePd)2,10.4529,12.419,1.9661
Ce(ZnPt)4,40.8897,30.2268,-10.6628
ZrVSi,55.0957,45.7841,-9.3116
K(AgRh)2,30.9882,23.5775,-7.4107
Ag2PbAu2,38.782,37.4783,-1.3037
Li2Tm2Tl3,30.4475,32.1585,1.711
Pa3BePt5,71.7363,57.7677,-13.9687
CrIrW2,33.6044,36.6963,3.0919
YAl2HgBi,27.7325,23.6591,-4.0734
Ga2SnSb,20.6892,19.143,-1.5461
TlSbAu4,44.2727,44.0324,-0.2403
AcYTmHg,36.4946,34.6794,-1.8152
Li(AcNi)2,28.2034,30.0224,1.8191
Sm2ScTi,15.2389,17.5121,2.2731
AlSbRu,21.2451,20.376,-0.8691
Dy3Y2Si3,27.6448,24.718,-2.9267
BeCu2Mo,23.3396,15.9463,-7.3933
NbSn2Sb,57.4637,49.6112,-7.8525
TbScS,41.0545,38.6141,-2.4404
CuMo4P,26.0098,20.3633,-5.6466
YAl2Hg,20.0353,15.8538,-4.1814
NpMn6,96.0826,75.7859,-20.2967
YHg,17.4814,15.8526,-1.6288
La(ScSb)2,26.668,20.41,-6.258
CeMg6Mn,17.632,15.3584,-2.2736
FeSbW2,40.7908,40.1825,-0.6084
Li(BiPd)2,28.6701,30.7496,2.0795
BaNa2LiCd,15.343,13.075,-2.2681
RbTc3I,63.906,52.3631,-11.5428
GeMoAs,4.4522,10.494,6.0418
Na2GaPdF6,11.8988,10.9341,-0.9647
AlSnSe,23.7461,22.1205,-1.6256
Ge3MoAs,11.2595,12.6547,1.3952
Zn2SiOs2,17.2681,20.3467,3.0786
ZnCd2Ge,14.0263,15.2064,1.18
Cr3SnW,19.2517,18.9088,-0.3428
TlOsPt2,68.2225,56.3141,-11.9084
Zr3Bi2Sb,67.9752,60.2836,-7.6916
SiAsSe,44.5697,39.2204,-5.3493
ZnSi2Os,20.5718,18.7728,-1.7989
NbCdCu,41.3246,40.4034,-0.9212
RePd3I,24.8034,25.447,0.6436
Tb4SbOs,25.5034,27.2261,1.7227
Be2Ru2Pb,11.4864,16.0434,4.5571
Tb4SbIr,25.7681,27.359,1.5909
AgBPb,24.467,24.3768,-0.0902
Na2AlIrN,20.5236,19.1214,-1.4022
TlOsPt2,68.3927,56.3141,-12.0786
ZrTi3Hg,25.3732,21.3253,-4.0478
Tc2PIr,64.9411,54.8225,-10.1186
Y2HgBr,28.3206,21.4315,-6.889
Li3(CdBi)2,21.0251,22.1378,1.1127
Y2HgBr,27.5343,21.4315,-6.1027
Li3(CuAg)2,11.044,9.5609,-1.4831
K3PdCl,11.1008,10.8867,-0.2142
YHg(AsO4)2,8.3908,8.683,0.2922
POsS2,41.1692,38.8856,-2.2836
SmSb2Ru,25.834,25.1618,-0.6722
MoAuSe2Br,35.1014,31.8158,-3.2855
LuAgRh2,40.341,32.7995,-7.5415
TeRh2C,51.2634,38.9513,-12.3121
Zr6TiBi3,69.2614,59.237,-10.0244
Be2CuMo,19.9302,14.7243,-5.2059
Si2RhBr,22.5595,16.6749,-5.8846
Na(CdOs)2,25.407,31.035,5.628
FeMo2Br,14.6917,12.7004,-1.9913
La(ZrBi)2,64.8144,56.8849,-7.9295
LaZrBi,61.2342,53.1052,-8.129
Be2CuMo,20.021,14.7243,-5.2967
NaOF,5.4211,4.7025,-0.7185
SiRh2Br,30.9389,23.1268,-7.8121
AlSi2Sb,29.8742,22.3183,-7.5559
BeCu2Mo,23.4807,15.9463,-7.5343
BeCuMo2,24.3771,18.3338,-6.0433
TaSnRu,16.8783,8.8214,-8.0569
Li2PmTl2,25.2415,26.7688,1.5273
Ca2LaAgTe4,31.4338,27.9014,-3.5324
CrAgRh2,34.7884,25.9325,-8.8558
NdY(NiAs)2,43.6245,37.6079,-6.0166
AcRu3,0.0,1.4639,1.4639
SrCoGe3,4.4782,7.0149,2.5367
Zr2TcBi,85.7381,74.7014,-11.0367
TiGeIr3,30.5669,31.981,1.414
LaZr2Bi,69.7672,60.3615,-9.4057
TiBiIrOs2,41.1308,41.9782,0.8474
TlIr2Pb,48.2036,50.6929,2.4894
KTi2GeIr,16.6361,17.1182,0.4821
Ti2IrOs2,0.0,8.4393,8.4393
TiIrAu,32.9987,29.7491,-3.2497
Y2TiGa3Pt4,47.7918,34.9579,-12.834
Ti8Sn2Ir,17.4963,15.9077,-1.5886
Sc2Cu4S5,39.7592,30.0635,-9.6958
TiCd2Ir,22.2314,24.4547,2.2233
SbPdN2,20.585,17.4649,-3.1202
Ti2BiIr2,22.1071,27.8817,5.7746
LiTiIrPb,25.0214,28.0285,3.0071
TiGe2Ir,17.1212,19.9052,2.784
SiSn2Sb,23.5687,19.3988,-4.1699
Ti2CuIr,14.5839,18.424,3.8401
TiCd3Ir,23.2075,23.698,0.4905
TaIrW2,39.1859,45.3956,6.2098
LiPaIr2,38.1574,42.4394,4.282
TiMnRu2,33.8529,31.2496,-2.6033
Li2TiIrSe,20.531,19.5463,-0.9847
DyY3Hg2,25.0109,19.8076,-5.2033
KTcNi2,25.8763,24.2562,-1.62
Mn2Cu3Au8,46.0347,43.0692,-2.9654
LaWCl2,24.768,21.5827,-3.1853
Sr3CaMo,15.3711,14.2338,-1.1374
ReRu4Pt,32.7042,31.6975,-1.0068
MnCu4Au,24.2446,22.8077,-1.4369
Ag(RhW)2,59.4027,48.0145,-11.3882
Na(OsSe)2,35.9461,33.8553,-2.0909
ReRu4Rh,33.0399,31.6651,-1.3748
UTaRu4,28.2552,32.2939,4.0387
NaPm4Se5,34.7018,30.5361,-4.1657
Li(TbRh)2,29.7015,25.0824,-4.6192
PuURu4,34.1562,38.0077,3.8515
K2RhW,29.1078,25.713,-3.3948
NaTi4O8,0.0,0.0,0.0
Li(ScS)2,32.8445,29.5373,-3.3072
YTi3Tc,54.0282,45.9108,-8.1175
Ti2IrAuI,31.3016,27.574,-3.7275
Cs(BaNa)2,13.3813,12.4283,-0.9529
HfBRu3,28.9376,26.1341,-2.8035
LiLa(YHg2)2,19.7726,14.6326,-5.14
CrCdTc2,47.3215,41.0473,-6.2742
Cs2Ag(TeO3)2,15.744,14.6993,-1.0447
NaOsSe3,42.3911,35.7027,-6.6884
AlMo2Pb,32.025,28.1439,-3.8811
Rb2SnMoBr6,16.3225,13.2811,-3.0414
AcThZn3,27.1768,30.4922,3.3154
Cs4LaU3O12,18.5805,20.2093,1.6287
AlMoPb2,32.0616,32.1928,0.1312
Mn2Si2Ge,40.8108,30.3604,-10.4504
Ga(SiTc)2,44.4078,35.947,-8.4608
Ti2TeIr2,19.399,24.3619,4.9629
Sr2Al2Pb,17.7046,18.7759,1.0714
Hf3BRu,90.7246,65.2726,-25.452
U2BiSb,59.1662,59.4047,0.2384
Ca3Sb2H,7.1881,5.9627,-1.2254
YZr2Bi,59.8388,55.4209,-4.418
Y2TaHg,43.4721,34.3753,-9.0968
CsErCu4,13.8479,15.3385,1.4906
ErZrTlCu,46.2331,44.0478,-2.1853
ErZrCu,44.7177,41.0817,-3.636
Ge2RhAu2,27.874,26.695,-1.1791
Y2HgSb,35.9064,27.7663,-8.1401
Ac4RuAu,55.6832,55.4418,-0.2414
Y2TaHg,43.354,34.3753,-8.9788
GdErScCu,33.4421,30.6855,-2.7566
MnNiI3,55.8529,48.6452,-7.2077
Zr3MoBr,65.0489,54.6485,-10.4003
LiMo2Ir,24.5355,22.3138,-2.2217
Er3CuBi,24.9319,28.0865,3.1546
NaCa2F,10.1144,9.1718,-0.9426
NaZrO2,6.7829,6.3281,-0.4548
Y2ZrHg,49.8362,39.5972,-10.239
Y2TaHg,43.4635,34.3753,-9.0882
NaZrF4,17.525,16.8563,-0.6687
ZrFeBr,37.1702,33.2453,-3.9249
Y2TcHg,74.3225,60.4641,-13.8584
ZrAgI6,32.9296,30.9411,-1.9885
RbSm(MoO4)2,14.8566,12.8185,-2.0381
Tl8Sn3,42.7484,43.2743,0.5258
LiFe3Ru,32.1747,23.5732,-8.6015
Ca2NdAgTe4,28.099,26.9369,-1.1622
RbCrSeN2,25.9375,20.9971,-4.9404
NaCaF2,16.7571,14.4997,-2.2574
Tc2PbBr,70.8875,58.3975,-12.49
Pr3Ru,0.0,0.0,0.0
UTlAgTe3,40.9329,41.7547,0.8218
BiRu3Br,28.1754,27.6224,-0.553
Pm3Ru,0.0,0.0,0.0
ZrSc2Bi,40.8383,39.2548,-1.5835
V3C2,91.3189,70.098,-21.2209
Sr2YHg,19.3553,16.5169,-2.8384
YTl2Hg,37.9199,35.3452,-2.5747
TaRe2,26.3634,40.1527,13.7893
CaDyAlIn,13.5654,15.9028,2.3374
AcTl(PO3)2,17.7177,17.0208,-0.6969
Y2NiCl,81.2912,72.6903,-8.6009
ErCuSn,34.3199,33.6914,-0.6286
KNbHg2,36.8497,30.6655,-6.1842
Ag2Rh,33.9992,25.9334,-8.0658
ZrBiSb3,58.6589,48.4306,-10.2282
RuBr,3.3444,0.0,-3.3444
PuTl(PO3)2,10.7338,9.469,-1.2649
YHg2Os,23.1686,21.1965,-1.9721
ScW2F,27.4828,26.7983,-0.6845
SrCd2Pd9,18.2295,19.0107,0.7812
YHgOs,30.9739,28.5683,-2.4056
YTl(PO3)2,12.766,10.8159,-1.9501
Hf3ScSn,98.7175,69.3973,-29.3202
CsY(PO3)2,14.6145,11.1447,-3.4698
YHg2Pt,34.5946,24.86,-9.7345
YHgSb2,34.6401,26.6912,-7.9489
Ag(SbIr)2,36.1088,33.5691,-2.5397
LiTmLu2,24.7487,27.3658,2.6171
ZrBiI,43.1529,39.0808,-4.0721
DyY2(InHg)2,23.7504,21.099,-2.6514
YSc2Hg,15.0903,13.6607,-1.4296
Zr3BiRu,74.7126,64.3031,-10.4095
Y2ScCoHg,30.3519,23.5951,-6.7567
Zr2AgGe2,42.968,37.4683,-5.4998
YScHg2,13.4857,9.6717,-3.8139
Dy3(YHg2)2,16.5051,15.3172,-1.1879
BeTc2Pb,60.6499,53.2883,-7.3616
CsTmSn,21.6558,25.1274,3.4716
BeTc2Pb,60.5481,53.2883,-7.2598
Dy(Y2Hg)2,32.8761,25.6815,-7.1946
Dy2OsRu,27.9943,31.3485,3.3542
V2CdMoBr,62.9574,50.862,-12.0954
PdAu5,38.6902,41.8189,3.1286
La4CoIr2,42.5593,33.6107,-8.9487
MgTeF2,32.0952,27.9482,-4.147
CrCd2Ir,24.1983,24.1742,-0.0241
Zr2W2I,51.6604,49.3559,-2.3045
Cs3Ni3P2,19.0926,18.1107,-0.9819
Tl3GaSb,41.6715,39.779,-1.8925
Ag2PdAu6,40.421,40.0943,-0.3267
CeZn3Pt,26.9604,22.9518,-4.0086
ZrW3I,49.6739,48.8413,-0.8325
GaSbPb,35.3181,32.9097,-2.4085
SrV2Rh,74.6126,58.2095,-16.403
Tl2GaSb,38.7976,36.9424,-1.8551
EuAs2Ru,20.4139,18.3684,-2.0455
EuAlPt2,51.7055,39.66,-12.0455
DyYHg4,12.6296,11.361,-1.2686
CuPS2O,33.2861,24.2374,-9.0488
Rb2NaZnBr6,9.3844,9.3337,-0.0506
Sc5SeS4,43.6187,39.4077,-4.211
ScSbSI2,38.3021,33.7189,-4.5832
EuTlAs,29.1892,30.8163,1.6271
CdP7,6.4127,6.9316,0.5189
Dy2YHg,26.1609,24.6757,-1.4852
Pm2B3Ir2,19.3718,22.3977,3.0259
Y2MnIn2,29.7695,25.3286,-4.4409
TaIrW2,39.217,45.3956,6.1786
TbEuAs,13.3764,16.9922,3.6158
NaCa2Si,17.2473,12.9681,-4.2792
NaSnPtAu,45.301,38.273,-7.028
Bi2AsPPt,50.3577,42.8472,-7.5105
TiCd2Sb,19.4336,19.5442,0.1106
Eu2AsO,15.3068,18.3414,3.0346
EuAsSe2,48.0659,43.8285,-4.2374
TbEuAs2,17.4309,20.1182,2.6873
Eu2As2Pd,9.7865,13.6636,3.8771
PmEuAs4,15.0552,16.6145,1.5593
PrEuAs2,9.6086,12.4464,2.8378
Eu2AgAs,23.759,23.5934,-0.1656
Eu(AsOs)2,26.0298,28.6133,2.5835
RbSb2Pd5,23.636,20.9474,-2.6886
Y(ZnAg2)6,23.4066,18.158,-5.2486
Eu2SnAs,21.0007,23.2422,2.2415
Eu2AsAu,27.5057,29.2886,1.7828
Eu2BiAs,29.3885,31.6449,2.2564
EuBi2As,36.974,38.5307,1.5567
LiLa2YCl,53.1101,43.5421,-9.5681
EuAsP,24.8665,22.8135,-2.0529
Eu2MgAs,18.8869,18.6929,-0.1941
Na(CuBr3)2,11.7097,10.3624,-1.3472
Dy2Be4Si3Ir,26.8101,23.3729,-3.4372
Eu2AsBr,17.978,19.8615,1.8835
EuVAs2,43.5725,38.2696,-5.3028
EuNpAs2,28.6572,31.478,2.8208
EuInAsAu,25.8415,27.4259,1.5844
Na3Ca5F12,0.0,0.0,0.0
Li2In3Ag2,18.7954,15.8776,-2.9177
PrEuAsAu,29.7118,27.2063,-2.5056
TlPb3F,43.8264,44.5168,0.6904
GdZnGe3,12.7106,14.1788,1.4681
Li2Ag2Sb3,28.1428,22.0927,-6.05
NaCdBi2,35.5324,36.0786,0.5462
YbSnRu,7.6115,14.2742,6.6627
Dy2YHgO,27.7101,26.3911,-1.319
IrOsPd3,29.7203,31.208,1.4877
GdTaRu2,24.339,28.3259,3.9869
Ba2Li2Al3,13.6516,8.7355,-4.9162
AgSbSeN2,27.5133,21.885,-5.6282
Li2Ac2Au3,34.3922,36.7157,2.3235
TbSm(YHg2)2,18.5195,16.7273,-1.7922
TaOsRu,32.008,37.9294,5.9214
TaPRu2I,32.0622,23.9557,-8.1064
Y10(HgPb)3,31.8661,27.038,-4.8281
Pr2Sm3Pt2,34.2217,27.6995,-6.5221
PaFe4Ru,43.9799,33.0167,-10.9632
BRh,12.4131,15.2482,2.8352
ScPdCl2,19.6222,19.4024,-0.2198
Sr2SeBr2,20.78,18.5775,-2.2024
Mo2RuI,24.6915,23.8474,-0.844
Ce3Sn3PdPt2,37.4668,31.5763,-5.8906
La3PuPd4,36.5486,31.4759,-5.0727
PrNpPd6,20.882,22.9386,2.0565
Y3Sn2Hg3,25.2112,18.8533,-6.3579
TbHfPSe,54.0655,44.0647,-10.0008
Mg2Cu2Rh,21.1765,14.7666,-6.4099
Ce2PrAg6,25.7036,21.1082,-4.5954
MgNiAgN2,30.1447,22.6234,-7.5213
K2HgRu,10.7542,10.7803,0.026
K(Rb2Na)3,8.7261,6.9488,-1.7773
MoPS2I,39.4661,30.1243,-9.3418
TcNiN,44.5851,35.9955,-8.5895
HfPaSe2,76.1883,62.544,-13.6444
Ni3PdN,9.2456,11.5068,2.2612
InSbAs,24.9681,22.5556,-2.4124
HfZnSeBr2,44.7404,34.1944,-10.546
YMnSe,53.3123,43.208,-10.1043
ScAg4Sn,30.357,22.7399,-7.6171
Pr3NdAg4,16.7072,13.9259,-2.7813
LaSiIr3,41.5012,37.1222,-4.379
Hf6AlSn,111.023,78.8837,-32.1393
BaPI2N,22.5595,19.351,-3.2085
Ac2PdAu3,42.586,45.2839,2.6979
HfPaSe,85.8709,70.6378,-15.2331
MnCr2NiN,58.8185,48.4028,-10.4156
BaCrTe2,27.5875,25.7628,-1.8248
InPd6Au5,30.0371,31.5928,1.5557
SrCaBeAl2,16.2482,11.8742,-4.374
Pm6Pr4Sm,14.4302,16.3283,1.8981
YZrP2,42.7828,34.9926,-7.7902
K2HgRu,10.7812,10.7803,-0.0009
Li2Hg2Pb3,25.0609,25.0577,-0.0032
DyY4Hg,20.83,18.2549,-2.5751
CaSe2I,48.5398,38.8286,-9.7112
Pr2PdO3,15.8342,11.3757,-4.4585
AgPtAu14,48.9485,47.518,-1.4305
PuScAu4,43.7946,45.5776,1.783
BaBe2Te,12.22,11.59,-0.63
TcHg2Se,35.7239,29.4215,-6.3024
ScUAu4,43.3543,45.4728,2.1184
Ce2Y(CdHg)2,19.5791,19.0916,-0.4875
Y3Hg3Pd4,22.8131,18.2376,-4.5754
ScAgBr4,14.478,12.7747,-1.7033
Co2NiAgN,68.4571,55.3335,-13.1236
PrScGa2,0.0,0.0,0.0
ScTlBr4,17.5477,17.4703,-0.0773
Ni2PtN,34.2517,26.0602,-8.1915
SrLuAg,25.9985,24.8672,-1.1313
Na2TlAsPt,39.7205,32.4728,-7.2477
GaSnRu2,16.2377,18.5213,2.2835
NiBrN2,9.6591,7.7475,-1.9117
Li2Ni3Ir2,15.2053,17.2735,2.0681
Re2NiN,104.8337,85.6021,-19.2316
PuZrHg2,42.3924,39.2716,-3.1207
TaMnRh2,58.2157,47.7267,-10.489
PaAl2ZnPt4,53.9647,42.1894,-11.7753
CaSnMoBr2,25.8003,19.6297,-6.1706
K2Ag2Pd,18.4443,15.6475,-2.7968
Y4Cd2Hg,23.7039,21.2148,-2.4891
Ta3Mn2Rh,59.4061,52.2709,-7.1351
Nd3In3Ir2Pd,25.7752,27.8483,2.0731
Ba2SrBr,7.8551,7.563,-0.2921
Li2Pu2Pt3,58.4531,48.0592,-10.3939
RbAgSb2,30.9968,24.1935,-6.8033
Rb2CdCF6,12.301,10.5434,-1.7576
Ce4ScCd,20.609,22.6841,2.075
PmNd2Ag3,23.6877,22.2641,-1.4236
FeMoAs2Br,26.0633,22.926,-3.1373
Pd9Pt,24.9411,24.1368,-0.8042
Sc2AsRhPb,34.2854,27.9725,-6.3129
LaW2Cl,33.2166,32.5628,-0.6538
RbGe,0.0,1.2571,1.2571
Ce4Ni2N,21.9242,20.3505,-1.5738
RuPb2Se,42.467,42.0118,-0.4551
Be3NiSb,14.4387,11.6616,-2.7771
Ni3AuN,14.6176,14.5056,-0.112
NaLaCeIn,30.2147,26.2085,-4.0061
PrYRh,19.9365,16.5056,-3.4309
CaTlAg,29.1744,27.4654,-1.709
AcPm2Lu,37.0925,39.9087,2.8162
BaThTe3Pd,28.5746,29.8419,1.2674
Ce4ThSc,28.5231,31.6941,3.171
LiAc2(BrN)2,26.1208,27.0912,0.9704
ZnCoBr2,16.4416,12.6228,-3.8188
Nd2Ga2Hg3,8.8882,10.1282,1.2401
GaPbF4,9.4946,11.9664,2.4717
CeAg(PO3)2,5.7314,2.9359,-2.7955
CePd9,18.1065,19.9112,1.8047
AcZrTe3,51.0752,49.1106,-1.9646
Mo2IrRu2,17.5044,18.9481,1.4438
SrCrPt,34.1578,24.0805,-10.0773
HfZrTc2,106.4933,84.6192,-21.8741
CuP2SBr,22.3949,20.2008,-2.1942
Tl3PtBr,48.0743,43.159,-4.9153
CeScHg4,4.551,5.9966,1.4457
Ba2Li3Cu2,5.8318,4.8737,-0.9581
PrNdZr,39.5203,36.0918,-3.4285
RbNi2IrN,19.1098,19.4437,0.334
LaMn2V,95.2201,72.3912,-22.8289
Pd5Pt6W,55.2004,42.8152,-12.3852
Y2HgS4,39.6531,28.0553,-11.5979
RbIr3Pt,46.0376,41.4416,-4.596
Li3(CdPb)2,20.5368,21.4629,0.9261
Ni2PtBrN,31.7214,23.4149,-8.3065
HfVIN2,61.193,46.066,-15.127
ThPd3,15.5248,25.4124,9.8876
Dy3YHg4,15.9824,15.8972,-0.0852
Tl(NiTe)2,29.3243,29.2721,-0.0523
BaCaOs2,23.3167,25.6071,2.2904
BaCa2Os,13.3996,15.3422,1.9425
SrBe2Tl,21.0787,18.1796,-2.8991
CaNiIrN2,24.9745,17.9339,-7.0406
CaGdPb2,34.3857,36.2088,1.8231
SnTeI2N,29.7776,26.8911,-2.8865
CsCuSnTe2,41.4881,38.197,-3.2911
NbBiMoBr2,47.9174,43.0564,-4.861
NiPdRh2N,32.2732,24.6171,-7.6561
Ac2CdIrPd,36.0408,38.9052,2.8644
Li3(LaNi)2,16.5825,12.7369,-3.8455
CoTcNi2N,66.1071,57.0605,-9.0465
TeMo2BrF,31.1382,28.0834,-3.0548
Y5CdHg6,22.1614,16.6342,-5.5271
LaOs2Ru,38.6568,37.9025,-0.7543
HfCoRu2,45.3301,37.6736,-7.6565
BePS2Br,26.951,23.6694,-3.2816
TiMoIr2Br,27.5416,27.4025,-0.1391
Y2Cd2Hg,27.6304,22.8848,-4.7456
NiAgRh2N,34.0597,24.4129,-9.6468
Pu3In3Ir2Pd,41.7726,43.8222,2.0496
Tm(Pd3Au)2,25.3203,27.5714,2.2511
YNi2P,43.1199,38.1342,-4.9857
RbHg3Pt,16.98,11.4207,-5.5593
BaAl,12.2166,7.4759,-4.7408
CdTcP2,29.8747,26.6533,-3.2214
Cd2TcP,34.2502,31.2453,-3.0049
Th5Ag,60.3089,61.6236,1.3147
Ni2AgAuN,25.1647,22.0885,-3.0762
YCdHg2Rh,24.1556,18.7042,-5.4514
NiPdWN2,28.5794,24.1049,-4.4745
BaP2PbO6,5.1445,4.262,-0.8825
Li2Pa2Ir3,37.517,40.7415,3.2245
AcP2BrO6,6.4927,5.4977,-0.995
Er3PuPd4,28.0939,30.2511,2.1572
CoIrSe3,39.755,34.5589,-5.1961
SrZr2Br,57.716,47.2926,-10.4235
TmCuHg,12.0655,14.2128,2.1473
TePI3,24.9521,23.0948,-1.8573
CrNi2PdN,23.8348,20.5745,-3.2603
Ce3Tl3PdAu2,37.2178,38.8305,1.6127
Li3(HgPb)2,17.5275,17.384,-0.1436
Sr2ScCdRh,22.2767,17.959,-4.3177
Y2Cd2Hg,28.1076,22.8848,-5.2227
Sr2Mg3Pd4,7.3436,9.594,2.2505
CaAl2Os,13.358,16.1607,2.8027
CsAc2CuO5,9.6721,12.0629,2.3908
DyEr4Sc,25.18,27.3172,2.1372
NaCuBrF2,13.3334,11.8957,-1.4378
NaInMo2Se,26.7258,24.3424,-2.3834
Y2CdHg,29.8214,23.4932,-6.3282
K3Rb12Ag5,7.0291,4.4156,-2.6135
NiPd3N,20.0078,18.8513,-1.1565
TeRuRh2,50.5172,40.0208,-10.4964
ZrAlTc,42.1516,55.3292,13.1776
Tm6Ag5Pd,29.4258,27.5752,-1.8506
Rb2SrMo,7.0352,7.7126,0.6774
Ni3PdN,9.2897,11.5068,2.2171
Li2Cd2Au3,25.5696,26.6489,1.0793
K(SnRu)2,11.8259,15.5336,3.7077
ScUGa4,17.5509,19.9059,2.355
Eu2NiN,23.9929,22.176,-1.8169
Y3(Cd2Hg)2,25.0289,20.8497,-4.1792
ScGaI4,16.6568,18.424,1.7672
Y3Cd2Hg,25.1889,21.7772,-3.4117
ThScHg4,11.4396,13.16,1.7204
HfZr2Os,86.3463,73.2358,-13.1105
RbOs,15.5942,16.1588,0.5645
YCdHg,8.0307,10.0801,2.0494
RbMn2Fe,48.7004,36.7782,-11.9223
NaInSe,30.246,25.9241,-4.3219
Li(DySi)2,20.6296,19.2732,-1.3565
Cr2NiGeN,24.1172,20.3043,-3.8129
CsNaHg3Pb,15.3668,15.3569,-0.0099
YCdHg,22.9849,10.0801,-12.9048
Cs2FeNi(CN)6,50.4503,40.4012,-10.0492
Li(PmSi)2,19.6277,18.6278,-0.9999
Li(SiPd)2,17.1184,15.3826,-1.7358
Y6Bi3Pb,23.4857,26.7062,3.2204
AlBiSe3,40.3279,35.1264,-5.2015
ErTlAg,29.8361,31.6377,1.8017
Li(SmAu)2,24.1375,27.2281,3.0906
BeSi2Tc,36.1278,29.735,-6.3928
Be2SiTc,33.1348,28.5339,-4.6009
La3ZrTi,54.2746,38.7126,-15.562
PaCo4Ru,17.8958,21.2061,3.3102
CaLaPm,23.4015,21.7805,-1.621
Y3Cd2Hg3,23.4128,18.7399,-4.6729
K3(AlTe2)2,19.3285,19.0848,-0.2437
Ce2Mg2Pb3,30.2031,32.0854,1.8823
YCdHg3,11.6094,10.2287,-1.3807
Pr2Nd(InPd)3,13.437,15.2914,1.8544
Na2In3PtAu12,42.4871,41.0613,-1.4258
ErPd7,18.7724,20.7662,1.9938
RbCaSb2,22.1085,16.7332,-5.3753
Sr2ZrTaO6,27.2455,21.8031,-5.4424
Ga2Pd2Pb,20.4832,21.1076,0.6244
YRuN,39.463,37.1094,-2.3536
YCd2Hg,21.9948,19.4524,-2.5424
CeTmSc4,12.6973,15.3202,2.6229