Formula,E_hull_DFT (eV/atom),E_hull_ML (eV/atom),Delta (ML - DFT)
YTm5Hg4,19.9136,20.5598,0.6462
Y3HgAs,25.1411,21.1693,-3.9718
Rb(Bi2Te3)2,42.8446,41.612,-1.2326
Na(YTe)2,21.4941,21.0365,-0.4577
BaZnCoF6,3.4557,1.639,-1.8167
RbBiTe2,34.9193,33.9089,-1.0104
YAl4Si,23.5631,19.7213,-3.8418
Sc2NiRhAu,23.2715,20.8074,-2.4641
SiSO2,10.8659,16.8476,5.9817
MnAg6,42.0611,33.46,-8.6011
Sc(AgSn)2,28.2333,23.8016,-4.4317
Zn(CoGe)2,8.1189,6.9449,-1.1741
CrNi2Os,26.3936,28.001,1.6073
Al4AgTe,14.4841,13.8314,-0.6528
Co2CuIr,31.4776,29.0008,-2.4769
NaScBeTe3,23.445,21.0046,-2.4404
Y2ZrHg,45.0267,39.7539,-5.2728
ScAgSn2,27.547,24.2578,-3.2892
NaScS2,43.9268,36.7501,-7.1766
NaNiS3,40.2308,29.5816,-10.6491
AcNdPtRh,56.1431,47.9236,-8.2195
LaCo2Cu,34.1139,27.4795,-6.6343
NaWS3,46.2467,35.9799,-10.2668
IrWSe4,45.4383,41.3069,-4.1313
Er2PaCo2,27.2997,30.9189,3.6193
TmRu3,19.86,23.2757,3.4157
AlCo2Tc,39.3033,32.1138,-7.1895
Cs2SrN,13.3503,16.1584,2.8081
Mn5Cr2,73.6163,60.2732,-13.3431
Tm3(ScNi)2,16.668,19.1378,2.4697
PtWSe4,53.2465,43.3605,-9.886
InGa2TcN,27.1851,25.1738,-2.0113
Be3(In3N4)2,23.8427,20.1426,-3.7001
Nb2ZnCo2,59.2556,47.8523,-11.4034
GaTcN,26.667,24.9293,-1.7377
ErCo6,10.4535,12.4125,1.9591
Ga2TcIr,38.0433,36.7502,-1.2932
Ga2CuTc2,37.18,33.3178,-3.8622
AcTbPtAu,56.1035,51.3987,-4.7047
Pr3(DySc)2,7.2633,9.5424,2.2792
YZrHg4,24.4493,19.5999,-4.8494
VNiOs3,53.8281,50.003,-3.8251
TlCdInSn,27.6877,29.0024,1.3147
Na2Tl2Pt,45.0637,37.9033,-7.1604
LiMg14Cu,3.9225,3.981,0.0584
Y11Ho9Er4,21.9033,23.4943,1.591
Ga3TcNi,25.4922,23.6851,-1.8071
GaTcNi2C,34.7188,29.4834,-5.2354
PrYHgBi,26.6424,23.6749,-2.9675
Tl2CdInIr,36.9191,38.0364,1.1174
Y6ErIn,17.4149,17.9805,0.5656
PmScBe2,13.3346,12.1937,-1.141
Eu2BeN,36.9444,33.1224,-3.822
Pm2SbP,23.1672,24.2807,1.1134
SrYHg2,15.5617,13.4827,-2.079
CrGaTc,21.3175,24.5162,3.1987
Eu(BeN)2,32.9949,28.0795,-4.9154
YTc2Hg,78.8374,69.4458,-9.3916
ScPa2Nb,70.5571,67.0125,-3.5446
Zr2Ga4Tc,46.2246,39.244,-6.9806
Ac2PuSn4Pt3,54.5412,46.937,-7.6042
Be2GaTcBr,24.1234,20.9042,-3.2193
Tb2Pr3Sc2,7.3604,9.3471,1.9867
Ga2ReTc2,40.9535,39.6562,-1.2973
Ac2Be3SnPt4,51.3145,39.3121,-12.0024
Tm2ZrNb9,119.7182,97.8179,-21.9004
Ac2Be(ZnPt2)2,57.7089,43.8925,-13.8164
Ta2TiNi,16.4014,22.4229,6.0215
LuRe6,40.1772,42.7041,2.527
Ac2NdZn3Pt4,52.6578,41.7852,-10.8726
Ac2Pu(PtI)2,59.868,52.5435,-7.3245
Y2HfHg,61.1035,45.6863,-15.4172
AcPm(AsPt)2,46.8265,38.8908,-7.9357
In2ReP,41.5291,37.4686,-4.0604
LiMg6Cu,5.2836,4.6346,-0.649
Pr2U(H4Rh)3,11.2262,9.5118,-1.7143
Co2HgGeSe,14.5521,13.2056,-1.3465
Tl3RuBr,39.8909,38.7964,-1.0946
TlAgPt2,65.3622,49.3902,-15.972
InRe2P,46.6824,42.1484,-4.534
BaAcCdPt,42.8359,37.4966,-5.3392
YThHg4,18.9514,18.1388,-0.8127
Li2MnMo,29.1645,26.1898,-2.9746
Y3HgSb,32.0076,25.2968,-6.7107
BaGaTc2C,54.4657,43.449,-11.0167
TePd,16.5907,19.7234,3.1327
Ac3Si2BiPt9,71.5732,52.6374,-18.9358
CoSiBr2,17.6277,13.5394,-4.0883
LiMg6Zr,14.3504,12.5981,-1.7524
MoPt7,80.081,54.8245,-25.2566
TbNdGa2Pt5,56.3969,40.4837,-15.9132
EuBe2Rh,19.007,18.0355,-0.9714
Y2ThHg,41.7591,36.7371,-5.0221
Nd4RhSe2Br,30.5945,27.7443,-2.8502
YHg2Pb,22.6106,22.0695,-0.5411
La2TaCu2,26.6338,20.3713,-6.2624
TbYHg5,10.573,9.5939,-0.9792
Tl(AgPt)2,58.7246,44.5862,-14.1385
Y2V2Hg,65.8597,51.0773,-14.7824
GaTcIr,41.1473,41.9417,0.7944
Zr2Ga4Tc,45.8142,39.244,-6.5702
GaReTc,38.3923,45.723,7.3308
CaY4Si,26.3701,22.3866,-3.9835
AcNd(AsPt)2,46.8042,38.78,-8.0242
Rb(NaPb)2,31.1624,29.7288,-1.4335
Tl2Zn2S3,30.448,25.4166,-5.0314
LiZr2Br,61.1945,49.5275,-11.6669
CsZnPO4,4.7989,2.9238,-1.8751
NaPtS2,56.4255,41.22,-15.2055
BaThPb,25.7832,31.6344,5.8513
GdY2Hg,32.4903,27.9377,-4.5526
Ga2TcNi,28.7582,27.6788,-1.0793
SiSbTe2As,39.7758,33.4246,-6.3512
NaAuS2,46.4977,37.7649,-8.7327
YLu2Hg,29.2545,28.3487,-0.9058
TlGa2SiTc,35.1079,31.7057,-3.4022
Ce2NiSb4Pd3,30.7397,26.387,-4.3527
KCuAg2F6,8.3474,6.8962,-1.4512
TlGa2TcGe,33.9646,32.2201,-1.7445
GaTcPAu2,47.4021,42.7727,-4.6294
MnCr3Te4,36.7537,32.2144,-4.5392
ZrTeSe4,54.8916,45.4316,-9.4599
Na2Si2Pd,15.9164,10.9614,-4.9551
LaCeGa2Pd5,21.8294,20.3414,-1.488
RbNa7,21.8102,17.4005,-4.4097
KNbSb2Te,56.9827,46.5322,-10.4506
ThTe,53.0091,55.1764,2.1673
RuPb3Br,42.9803,41.2816,-1.6987
AcBiPtBr,49.587,48.0353,-1.5517
K2HgBr6,7.3481,7.7027,0.3546
CdGa2Bi2Au7,39.6275,40.6573,1.0298
Ba2CrCoO6,3.7864,3.343,-0.4434
BeAsI2,21.559,23.9182,2.3593
Ce4PrY,18.8212,20.6432,1.8221
Na(AuBr4)2,18.9668,19.024,0.0572
YHfHg3,39.1679,28.5026,-10.6654
Ac2ZrAs3Pt4,60.6433,47.3774,-13.2659
Sc3(CdGa)2,9.7478,11.4939,1.746
Zn(SnC)2,35.4288,28.045,-7.3838
Ga3SbW,23.3361,21.9558,-1.3803
In2FeSb2,29.8647,25.3151,-4.5496
Ac3Pr2Nd7,29.9267,32.0875,2.1609
GdGaHg,12.1145,14.0684,1.9539
GaPbAu2,38.9102,40.5663,1.6561
Nd4PtSeBr2,31.7971,28.6926,-3.1046
YAlHg,25.395,20.8331,-4.5619
Sr5AlZn4,10.0372,11.0564,1.0192
NaHoS2,34.7018,28.9179,-5.7839
TlP2Br,13.7456,15.5093,1.7636
LaPrYHg,24.2804,18.3576,-5.9228
Zr2Sc3In2,37.3027,31.3765,-5.9263
Ag3As4,19.5836,17.3878,-2.1958
YHgB,61.3185,52.2928,-9.0257
Y(HgGe)2,10.2771,9.474,-0.8031
BaMnAg2,40.7601,33.7134,-7.0467
Ba2Tm(CoO3)2,4.4212,4.7616,0.3403
SbPbW3,44.9704,45.1197,0.1493
Ba2Pm(CoO3)2,3.9648,4.2721,0.3073
Ba3Ce(CoO4)2,3.2789,3.0326,-0.2463
Ba2Co2PbO6,6.9854,6.6207,-0.3646
ZnCrCoRh,24.8225,17.2517,-7.5708
Yb(GeIr)2,21.0387,25.2952,4.2565
Sm7DyY12,18.6717,19.7406,1.0688
PmGa2PdAu5,34.9577,35.1278,0.1701
CsNd(BO3)2,5.3524,5.6593,0.3069
AcAlPtN,31.61,31.2726,-0.3374
PmGa2Pd5Pt,26.412,23.3304,-3.0816
YbGe2Os,17.5842,21.0021,3.4179
GdAl2Ga,10.4816,12.3974,1.9158
SrYHg2,13.3564,13.4827,0.1263
Cs2SiSn2,20.7816,19.0513,-1.7303
La2AgBi,46.7673,37.8933,-8.874
Hg3WC,22.2668,18.0,-4.2668
Tm4SiSb,24.5611,23.7178,-0.8434
TmZnCoRh,29.9247,23.3262,-6.5985
Rb3CaTe,10.9167,9.8668,-1.0499
PrNdGa2Pd5,16.0612,16.3938,0.3325
TbPr(ScS2)2,40.0785,34.8094,-5.2691
TmSi3NiIr,13.9841,13.0488,-0.9352
Y(HgAu)2,25.8823,25.1847,-0.6976
RbCaTeI,16.5633,17.5305,0.9672
LiCaDy2,15.4335,17.7752,2.3417
Y2TiHg,30.1981,27.5889,-2.6092
ThZrNb6,126.8562,104.4672,-22.3889
ThZrNb6,126.8249,104.4672,-22.3576
GaCu,0.0,1.0887,1.0887
Cd2Sb2Pb,33.5869,30.746,-2.8408
PrAsAu,14.905,16.5327,1.6277
PrYHgIr,21.7804,21.7842,0.0038
Sr3CePt3,42.0091,32.7385,-9.2706
As2PbW,30.3641,30.374,0.01
YHgB3,41.8541,35.0711,-6.783
TaSbTe2Mo,39.0799,34.6155,-4.4644
CeGa2PdAu5,35.0035,35.0972,0.0937
SmNiAs3,2.5006,4.4286,1.928
YNbHg3,39.6783,31.4226,-8.2557
YHgMo,9.2904,5.9235,-3.3669
PmPrYHg,17.5844,16.5445,-1.0399
CeGa2PdPt5,58.0738,41.022,-17.0519
Zr4Nb3,116.9439,95.1679,-21.776
LaTa2Cu,27.6569,26.222,-1.4349
CaSm(YHg2)2,12.6612,11.0968,-1.5645
AcAlPtBr,36.3756,35.2246,-1.151
As2Pb,20.1553,23.0965,2.9412
Na2SrTaIn,31.4712,24.8736,-6.5975
NaSr2InMo,17.8969,17.6895,-0.2073
Ce3(GaSi)2,16.7249,16.2918,-0.4331
YHgAs3,16.5579,14.9544,-1.6036
CaSm2YHg4,9.6765,9.9121,0.2356
SmGa2PdPt5,58.1285,41.0877,-17.0408
Ce2(AlGa2)3,9.7287,11.2515,1.5228
LaIn4Fe,19.2726,16.5314,-2.7412
CaSm(YHg2)2,15.7944,11.0968,-4.6976
TaNi2Pb,25.8433,29.22,3.3766
YHg2Pb,25.3477,22.0695,-3.2782
NaBe4(AsO4)3,3.8375,3.301,-0.5365
MgTlAg2F6,13.0066,11.5953,-1.4113
Y2NiHg,62.9799,54.2807,-8.6992
Pr2Nd3ScS6,35.4246,28.8504,-6.5743
CaPm3Y2,16.6682,17.5697,0.9015
PN,34.2423,28.6573,-5.585
PrDyGa2Pt5,54.1728,37.6634,-16.5094
PC3N,52.8457,38.0033,-14.8424
P3N,19.005,15.2432,-3.7618
Pu2Mn3Ru,76.349,68.3211,-8.028
BaTc4P,65.6304,55.6602,-9.9702
SrSiC2,50.1427,34.6114,-15.5313
Tc4AgP,68.4226,58.5419,-9.8806
Tb(YHo6)2,21.6573,23.9843,2.3269
Zr4Nb3,116.9328,95.1679,-21.7649
Y(ErTm6)2,24.9289,26.943,2.0141
RbPr(AsAu)2,38.3926,34.8067,-3.5859
Sm12Y2Er,19.1889,21.6971,2.5082
La2YTm12,27.8982,27.159,-0.7391
KBiPd4,22.8781,24.3617,1.4836
Ce(SmY6)2,10.1239,12.776,2.6521
SiCN,34.2291,15.6405,-18.5886
RbCdIn3,16.0228,16.5527,0.5299
VSiIr,61.7547,51.9256,-9.8291
SmY(CuH4)2,10.66,10.1748,-0.4852
Pr2(SmBi)3,22.7277,25.45,2.7222
ReSi3Sb,26.4702,20.7534,-5.7168
YTiSnH6,12.6208,10.0387,-2.5821
ZnN,23.7876,21.0857,-2.7019
CoCN2,85.0252,73.808,-11.2172
SrBeAg,21.5704,15.4237,-6.1467
Na2Li2SbS4,34.9435,25.9455,-8.998
ReSi2Sb,29.2879,24.1551,-5.1328
Cs2Zn2Cd,15.8798,16.5613,0.6815
CoCN3,69.4458,57.5925,-11.8533
SmSnAs2Rh5,33.9133,26.3031,-7.6102
SrBeAg2,24.1905,17.7581,-6.4324
Re2SiSb,35.6385,34.1305,-1.508
KSr3W,27.209,20.9064,-6.3026
ReSi2Sb,29.4087,24.1551,-5.2536
Ba2AlRu,14.566,12.9579,-1.6081
FeNi,11.7492,7.9376,-3.8116
Ca2BiBr2,16.1062,17.4545,1.3483
Rb2CaN2,15.8934,13.5635,-2.33
Ca2LaCd2,17.3717,15.7114,-1.6603
Ca2TeBr2,13.1969,13.8887,0.6919
YBe2CuH8,6.7601,6.1006,-0.6594
CsNaBeO2,3.5903,6.9038,3.3135
Ho2Os,11.3512,20.5065,9.1553
ReN2,88.8253,87.9546,-0.8707
Ta2Si,19.1428,27.0729,7.9302
NpIn7,26.1309,27.1056,0.9747
CsGeN2,3.8809,6.3517,2.4708
Hf(MoRh)2,45.0448,35.5093,-9.5355
Ba2GaGe3Au4,22.9442,23.3693,0.4251
Hf2MoRh,87.4097,64.6533,-22.7565
Ta3GeN,26.4092,28.6295,2.2202
Al2AsBr,19.3647,16.1971,-3.1676
Cu2Ni3Pt4,43.3914,32.2506,-11.1408
NaFeBi2Mo,38.4968,35.2306,-3.2662
Sr2OsPb,30.619,33.7299,3.1109
Ca2Cu2Rh,17.3486,12.7814,-4.5672
Sr2CaI6,8.1839,9.8537,1.6698
TaSiTc4,70.6318,61.8213,-8.8106
Li3In3Bi2,22.8696,21.7049,-1.1646
SrPm2Os,26.2603,30.0407,3.7804
YNb2FeN4,50.4785,42.428,-8.0505
Hf4MnTl,112.26,83.3695,-28.8906
K2IrPt,39.8489,32.6358,-7.2131
Cu4NiPt,16.4438,13.6398,-2.804
ReSbTe,42.7272,40.8516,-1.8756
MnFe4Ir,31.8476,29.0806,-2.767
Nd7Y12Er,18.6358,19.6968,1.061
PrErGa2Pt5,54.4023,37.87,-16.5323
Cu3NiPt6,56.4398,39.2596,-17.1802
BaGe(IrO4)2,13.6063,12.7571,-0.8493
Cs12Br3O5,7.9227,9.1152,1.1925
Pr3Al3HPd2,4.1339,4.6574,0.5235
Ca2MnInTc,45.6867,38.745,-6.9417
NaTaBe2Zn,22.683,18.2818,-4.4012
Mn2InTc,78.0346,65.9172,-12.1174
MnInTc2,76.4294,66.7596,-9.6698
AlAsBr2,21.672,18.8464,-2.8256
LiSc2Ag,10.7379,10.4474,-0.2905
Th4MnIn,56.8675,58.0794,1.2119
Cs4Ag2N,23.6838,21.8518,-1.832
HfTaMo4,40.0846,36.9727,-3.1118
FeRuAu2,45.7549,41.5083,-4.2466
HfTa4Mo,50.9887,48.7691,-2.2196
SrCuSb2,22.9869,19.7121,-3.2748
Cs2PbBr6O,20.2041,19.1021,-1.102
Ca(ZnCd)2,12.7656,12.5076,-0.2579
Sr4PbSe5,33.9128,30.271,-3.6418
Sc2ReSb2,39.6425,31.0975,-8.545
SrTa4Al,33.1606,31.5549,-1.6057
Cs12Sr3Cl5,15.9079,16.054,0.1461
Y(Ti4V)3,33.2724,27.4932,-5.7792
NaPtI2,36.8429,29.7895,-7.0535
NaPr2As4Pd3,10.0756,11.2254,1.1498
ScReSb,59.2594,48.487,-10.7724
La4CePu3Se8,50.286,42.0222,-8.2638
YHf(NbN2)2,67.9898,54.2848,-13.7051
TlCdTe2,38.6779,38.5908,-0.087
Ag2SbRu,27.619,25.2027,-2.4163
Ta2Si,19.701,27.0729,7.3719
Rb2PmS3,31.8791,24.6984,-7.1807
Cs2CrSbBr6,24.7201,23.276,-1.4441
YTi4Nb3,57.8644,47.5373,-10.3271
Si2SnPt,31.6427,20.4921,-11.1505
KCa2Y,14.1795,11.7781,-2.4015
AlAsIBr2,21.776,18.5593,-3.2167
AlAsBr,25.7545,21.0529,-4.7017
PrAgSn,19.1776,17.1755,-2.0021
HfNiS2,58.1886,43.4152,-14.7734
Sc2MoBr,19.5556,18.8415,-0.7141
Rb2BaNp2Se7,38.9026,33.9732,-4.9294
NdZr2Nb9,124.8341,100.7784,-24.0557
Zr2TlGa,63.8161,55.3627,-8.4534
Zr8TlGa2,77.5303,61.766,-15.7642
CsNp(BO3)2,3.3826,4.4926,1.1099
Y2(Ti2Nb)3,56.6602,45.9235,-10.7367
SrTaAu2,44.0638,39.7905,-4.2733
Ta3CuI,31.0903,31.8245,0.7342
Na2(LiIn)3,15.4074,12.9892,-2.4182
Na2(LiHg)3,9.4818,8.2182,-1.2635
YTi6Nb,32.018,29.0936,-2.9244
ScCuIr,32.3127,33.4822,1.1694
MoPd4Rh,24.9355,22.523,-2.4125
MnV2Zn,91.1821,72.6952,-18.4869
Fe4NiP,27.4466,21.7251,-5.7214
Mn(CrFe)2,32.8322,24.365,-8.4672
MnVZn2,60.8776,49.5918,-11.2857
Al2AgBi,23.2882,23.1859,-0.1022
MoOsRu4,22.4986,24.6915,2.193
NaSrInP2,13.2743,13.0953,-0.179
AlAs2Br,18.0915,15.2294,-2.8621
CaPmSc,16.3401,15.2563,-1.0838
Pm(ZnPt2)4,58.7804,41.1833,-17.597
MgTaTl,31.5644,33.1002,1.5358
Ta4MoRu,30.4178,34.8107,4.3929
LiZrRh4,48.7973,36.3547,-12.4425
Rb2Ge2N,10.1212,9.0849,-1.0363
Sr2AgBr,18.6608,17.2272,-1.4336
ZnTc2Br,52.0039,45.4004,-6.6035
RbP3N,21.9627,15.2509,-6.7118
AlAs2Br,21.0107,15.2294,-5.7813
Sr3La4O9,20.7616,19.8794,-0.8822
Cs2SiN,17.5275,16.0474,-1.4802
OsRu3O,23.8994,24.1983,0.2989
Ca3Y(MnN2)4,33.2821,28.486,-4.7961
Tl2IrPbBr,47.547,45.7163,-1.8308
RbSnN3,21.383,17.4096,-3.9734
Hf4TcMo,113.6578,85.7442,-27.9136
Pm3Fe5S12,18.5075,10.6952,-7.8123
BaGe2PbAu5,33.94,34.9916,1.0517
GaTc2N,48.9972,43.9493,-5.048
Ta4TcMo,42.2214,44.9242,2.7028
GaTcN,11.826,24.9293,13.1033
Sb2AsOs,30.3645,28.7093,-1.6552
ReTe4Mo,39.2342,37.2863,-1.9478
Fe3Ni4,41.6258,29.4204,-12.2054
Ca(NdDy)2,21.861,24.2152,2.3542
GaPPb,32.5151,30.5455,-1.9696
Pr4Bi2Ru,32.7762,31.7511,-1.0251
SrGa3Tc,26.5805,24.4436,-2.137
Tb3YTh2N6,26.7465,26.8387,0.0922
Zr3Nb,91.6749,75.1878,-16.4871
YNi3H8,14.8865,13.55,-1.3365
Ag2SnBr4,18.0672,17.0483,-1.0189
ReMoRu4,22.0152,24.3584,2.3432
FeCuSiIr,34.8191,30.9334,-3.8857
AgPbBr2,33.8632,30.0256,-3.8377
ErTmSe2,37.4355,34.6034,-2.8321
Y2AgH8,5.2867,5.8258,0.5391
CdSn2GeW,23.3259,24.3721,1.0462
Li4InAs,5.9733,6.4848,0.5115
Ag2PbBr,39.1899,32.9095,-6.2804
AgPb2Br,44.2889,40.077,-4.2119
LaAsPb2,41.2271,38.3519,-2.8753
CuGeAu2,24.1468,27.9189,3.7721
Ce3TlRu,22.014,24.8746,2.8606
CeHf2Sc,79.4842,61.2128,-18.2715
FeNiP3,22.1158,17.4883,-4.6275
Ce2HfSc,49.8813,42.2337,-7.6476
ErTmIrAu,36.8158,40.383,3.5672
FeNi2,26.8973,22.0476,-4.8497
Tm2GeRu3,19.3306,22.4154,3.0848
Ag12I3Br5,18.281,14.5422,-3.7388
Sc2Ga2Br,3.1709,4.9225,1.7516
YSi(H4Os)2,14.3649,13.4667,-0.8982
Rb3Mg2Bi3,19.1594,20.7527,1.5932
AlGa3N,8.3761,6.8968,-1.4793
Y(TmTe2)3,29.392,30.0636,0.6716
Y(Zn3Au)2,17.7374,18.0632,0.3258
LiCrPb3,33.8858,34.3163,0.4304
PuAgBiH,32.9027,34.3993,1.4966
PtRhN,39.8638,32.8986,-6.9652
SrFeCl2,17.8181,17.3948,-0.4234
Sr2CaAg,17.6063,15.4114,-2.1949
Ca(SmTm)2,23.3174,25.5126,2.1952
YTi4Nb,33.1433,28.3821,-4.7612
CuTc3Ni,59.8818,51.8645,-8.0173
BaTaAg2,25.432,24.3032,-1.1288
ReHgS2,39.0924,32.0913,-7.0011
HfPS2I,58.2094,45.6048,-12.6046
ScTaAg2,80.4166,66.5883,-13.8283
Tl2AsW,39.2853,41.3647,2.0794
LaTm2Ag,36.0707,32.046,-4.0247
AlHg2Sb,12.2131,10.2552,-1.9579
CsK2V2O7,24.5575,21.4898,-3.0677
Fe3Ni4,41.505,29.4204,-12.0845
Pr2PuBi3,36.979,39.21,2.231
LiTm3(ScS3)2,41.4509,35.0428,-6.408
FeNi,0.0,7.9376,7.9376
Sr2NbTe,49.2157,44.3577,-4.858
NaMn2VMo,76.6158,63.4034,-13.2123
Na2ZnSi4Pt3,38.2803,25.8733,-12.407
Fe2Ni13,17.6457,14.3324,-3.3133
Y2U(Ti2Nb)3,57.7592,48.551,-9.2082
AlInTc4,66.7596,57.4489,-9.3107
LiLa,19.5168,15.5609,-3.9559
YMnNi,99.9867,85.744,-14.2427
Y6In3Bi,15.8456,16.8116,0.966
Nb5(VH4)3,36.5685,26.9339,-9.6346
Ru2WSe,41.8074,34.4743,-7.3331
Si2AsN,14.728,11.019,-3.709
Rb2NaGdBr6,10.9423,11.8192,0.8769
La2Tb2Pr7,11.4901,9.214,-2.2761
Ca3NbI,36.5365,31.3186,-5.2179
Ba3Nd(GeO4)2,16.3447,13.4468,-2.8979
La2Pr7Dy2,11.6342,9.3067,-2.3275
SrAs2Pb,26.2353,24.2446,-1.9906
Ba2CaSm,7.696,9.5994,1.9034
LiOsSe4,40.2307,33.8213,-6.4094
Co(RhPb)2,38.3492,32.4435,-5.9056
PrSm3Ru,22.409,24.3706,1.9615
AgN,0.0,0.0708,0.0708
Tm3PdN,28.6417,27.9326,-0.709
Re3RuRh,35.3851,35.4862,0.1011
Mn2VSe,86.8565,70.4693,-16.3872
Nd3RuRh,29.8649,28.0834,-1.7815
Na2LiCuMo,24.802,17.8365,-6.9655
SrTeC3,49.5067,36.6041,-12.9026
ScAgSb3,36.1038,28.3258,-7.7781
Cu2RhN,17.048,14.9556,-2.0924
MnSnPS,34.1876,32.066,-2.1216
RbLaCuMo2,29.0005,20.3861,-8.6144
NdThAs2,26.3732,30.6194,4.2462
Nb2CrRu,76.8976,65.1715,-11.7261
SiAsIr2,38.3371,37.4722,-0.8649
RhIO2,36.2405,28.5084,-7.7321
NaFeNiB2,28.466,20.9119,-7.5541
SrBeCl2,14.2038,14.6371,0.4333
Ti7Al,5.5086,7.0778,1.5692
Ca2SnAs3Pt4,41.1917,29.8572,-11.3345
PrPdPb,21.1818,23.9671,2.7853
MoAsPb2,33.3234,34.7714,1.448
AlCrCl2,9.2148,8.72,-0.4948
Sm3SnRu,16.0172,20.648,4.6309
K(AlSb)2,18.1856,15.3725,-2.8132
Pu2PbBr,58.9828,57.2741,-1.7087
Th3TlRu,31.9584,40.6199,8.6615
YU4V3N8,48.3116,43.164,-5.1476
LiLa4Te,41.622,29.2345,-12.3875
Ho3TeRu,22.0467,26.1359,4.0892
MnBePS2,44.6768,37.3393,-7.3375
CeSmPuSe3,35.0534,33.4262,-1.6272
YTh(VN2)2,45.9446,39.317,-6.6277
TeS2I,44.9032,37.1081,-7.7951
KAl2Sb,15.8214,13.7004,-2.121
RbBaNa2Ag,16.5398,13.295,-3.2448
YAl(MoC2)2,38.5938,27.7115,-10.8823
La3Np,56.6349,43.9466,-12.6882
Sr2LaRe,38.8848,31.517,-7.3678
Cs3(SbPt2)2,57.518,42.0288,-15.4892
AlTcRu4,27.8998,27.4062,-0.4937
NpNb5,129.8252,108.9186,-20.9066
Sm3PuSe4,40.7268,36.9095,-3.8172
NaGe2MoOs,23.5398,21.1646,-2.3752
La2NiRh2,34.5175,23.7183,-10.7991
Ta4BeAu,34.9246,36.4216,1.497
SrTlBr2,22.8351,23.6461,0.8109
LiZrHgI6,26.5565,23.8413,-2.7152
HoReNi,28.8864,20.5412,-8.3452
SrGaPS2,33.9694,25.7767,-8.1927
SrTlBr,27.1951,26.849,-0.3461
Ac2Ga2Cl,29.0007,31.1338,2.133
Na2ZrBeTe,38.6988,31.6347,-7.0641
Ca2ThIr2,43.9648,38.8292,-5.1356
Ce(InSn)2,16.6704,18.971,2.3006
BeInTc2,52.2723,46.8519,-5.4204
GaCuGe,10.3869,10.2794,-0.1075
Ta4BeW,33.544,35.8647,2.3207
NaZn2FeGe,16.3382,14.6021,-1.7361
YPu2(NbN2)3,56.8778,49.6631,-7.2148
TaBeIr4,37.159,39.8923,2.7332
BaGeO2,13.2409,11.7956,-1.4453
Sr(Ti2Pb)2,21.6713,22.6666,0.9953
Ce4CdN,13.4766,16.2518,2.7751
La2PrBi,37.8007,29.9976,-7.8031
YU(TaN2)2,32.4378,31.7999,-0.6379
CaSm6Y3Er2,22.9807,23.3261,0.3454
SrLaGe2,20.6604,17.5077,-3.1527
Na2ScTc,70.8166,59.9107,-10.9059
CdP2SBr,20.8554,20.6497,-0.2056
YTa2AlN4,24.4042,23.5541,-0.8501
CaUS3,26.7262,23.2593,-3.4669
NaScGe4,19.1864,15.6972,-3.4892
NbAlO4,13.6343,14.1371,0.5028
La2Ce(NdSe2)3,39.0644,32.0277,-7.0367
PuVH3,19.5102,17.3697,-2.1405
Ac4MgPd,33.55,38.7723,5.2224
Cd2InSb2,27.2002,24.4426,-2.7576
SrTaAs2,25.8301,21.6451,-4.185
Tb2YErSc,15.6866,18.9419,3.2553
SrGa3N,9.921,10.1104,0.1893
Sb3AsW,38.8806,32.0528,-6.8278
NaIn2GaRh,25.4299,21.6691,-3.7608
BiPtRh2,60.5195,46.5812,-13.9383
Re2PbW,43.5789,48.366,4.787
NaSr2CuNi,16.3679,14.1516,-2.2163
Sr2(AcPb)3,46.929,48.71,1.781
AsRhPb,37.0861,34.9325,-2.1535
LiGeB,0.0,2.0245,2.0245
Ba2FeRu,17.6369,13.0739,-4.563
PmY(ZrNb2)2,100.5539,82.6428,-17.9111
YZr5Nb6,113.0803,91.1358,-21.9445
CaAcSb,35.2761,35.0228,-0.2533
HfSbRu2,54.7637,43.9168,-10.8469
PIr2Pt,51.8493,43.3689,-8.4804
Ca2La2Sm,27.7177,22.333,-5.3847
Zr2SbAs,62.3646,49.8548,-12.5098
Ga(NiH4)2,2.0873,2.6182,0.5309
TbEr2Hg5,10.056,11.231,1.1751
MgPaZn4,17.0671,18.1504,1.0833
SrLa2Sm,35.6086,27.5519,-8.0567
Zr2CdSi,57.3743,45.9874,-11.3869
Zr4Nb15Ag,127.5251,103.0887,-24.4364
Na2Y(NbN2)3,49.286,41.3503,-7.9357
LiHfRu3,38.9931,32.5421,-6.451
Ca2LaPr2,11.6816,8.9336,-2.7481
Ca2LaPt2,42.1102,27.8752,-14.235
Ca2LaTb2,19.7571,19.0939,-0.6632
SmYNb14,126.496,102.4759,-24.0201
SrScMo2,22.2248,23.1615,0.9367
Ce3Y(VN2)4,43.8475,36.6392,-7.2083
Ba2HfZr,57.2422,44.0583,-13.1839
Ca2Nd2Th,25.129,28.2084,3.0794
Ta2AlSb,23.122,25.8606,2.7386
AcEuDy2,36.9861,39.2038,2.2178
NaThTlSn,40.415,41.3865,0.9715
MgZr4Tc,81.2974,66.7156,-14.5818
YZr6Nb5,109.4461,88.2452,-21.2009
Ca2AcI,23.8649,25.6982,1.8333
ReP2PtS,56.219,45.0853,-11.1337
Sr3N,6.5947,8.9415,2.3468
SmGeIr,12.613,17.9222,5.3092
TlPb3Se,51.9197,50.5697,-1.35
Pm3Te3S,29.9476,28.8062,-1.1414
Cu3SiGe,10.1891,9.6898,-0.4993
Tb2PuSe3,21.0962,22.9857,1.8895
K2TcAs,28.2787,27.0939,-1.1848
YTc5Mo4,67.8545,60.9934,-6.8611
Ta2AlSb,30.4552,25.8606,-4.5945
Ca2Ni2Ir,18.8324,15.9816,-2.8509
Sr(HfZr)2,92.3675,70.5454,-21.8221
Y2ZrNb6,99.7762,81.6682,-18.1081
YHg2Pb,25.4147,22.0695,-3.3452
NaLaY,30.1944,24.0802,-6.1142
NaAs2RuRh,30.3592,24.6996,-5.6596
Ca2Pr2Sm,6.3501,7.7441,1.394
PdS3Cl,34.3772,25.8393,-8.5379
V(SiNi)2,27.1881,21.4355,-5.7526
TmNpN,23.82,31.6048,7.7848
SrSiTc,56.7142,44.2906,-12.4237
ScCuI2,26.6326,23.3329,-3.2997
Mn4CoOs,74.818,63.047,-11.771
CeNd2SmS4,32.152,27.4015,-4.7504
TaSi3,13.3977,9.9963,-3.4014
CaTaAl2,12.2557,15.4172,3.1616
BaMgTl2F6,10.0808,11.0677,0.9869
CaTaAl2,11.9905,15.4172,3.4267
SiTcIr,50.0996,45.6988,-4.4008
Mn4GeOs,74.8904,63.0349,-11.8555
MnAgSn4,31.0834,28.0251,-3.0582
MnAgAu4,53.284,50.0286,-3.2554
PtI3N,34.5577,29.5612,-4.9964
OsBrN2,36.4371,31.3242,-5.1129
Ac6PtRh2Br3,50.2834,47.1805,-3.1029
Th4MnAg,58.8122,57.3015,-1.5107
SmYNb6,111.4451,91.9865,-19.4586
Tm4MnAg,37.117,35.5709,-1.5461
IrBrN,19.2068,20.9881,1.7813
Ca2Pr2Er,7.2221,8.9629,1.7408
CrNiPb3,43.8959,43.7264,-0.1696
NaPmInCu,18.8629,19.6417,0.7788
U2Cr2Ni,40.8448,42.0923,1.2475
MnTe4As,46.2546,41.086,-5.1686
YTm(ZrNb2)2,101.2363,83.2087,-18.0277
MoOsSe,39.9572,34.9271,-5.0301
TaAl2Si,24.3381,23.7032,-0.6348
PmPtS,49.6157,41.4859,-8.1298
NaSnN2,16.0151,15.2497,-0.7654
Cd2Cu2Ru,10.8812,12.8807,1.9996
Ca2PaPt2,32.7928,23.8478,-8.945
Mo2OsSe,37.1004,31.2901,-5.8104
MnSnBr4,26.9876,25.1,-1.8876
Ca2PrRh2,20.8791,16.1972,-4.6818
MnTlBr4,32.0561,30.1441,-1.912
CrSnS3,33.8255,25.3665,-8.459
TaAgI3,27.8665,26.7376,-1.129