Formula,E_hull_DFT (eV/atom),E_hull_ML (eV/atom),Delta (ML - DFT)
Sc3Ni,0.0,2.527,2.527
Sr12Bi5N2,22.2624,23.4992,1.2369
Sr12Hg5N2,8.611,9.3581,0.7471
Tb(NdAg3)2,29.0689,24.9251,-4.1439
Cr2SiSe,20.6806,18.1388,-2.5419
BaAgRu2,17.8192,16.6514,-1.1678
In3Ga3Ge2Ir,16.2513,17.6065,1.3552
Ta4AlN3,7.8095,15.6973,7.8879
Ba3LiRu,5.1182,5.265,0.1468
Pm(ScAl3)2,6.9359,7.7023,0.7664
Ca3CuN3,0.0,0.3289,0.3289
AcZnH6Pt,17.8439,15.1066,-2.7373
Li2CoCuO4,25.0873,21.0249,-4.0625
Na3Th(ZrTe3)2,48.1369,43.3902,-4.7467
TaAuSe2,44.9225,41.74,-3.1824
Pr(NdAg3)2,25.5779,21.3949,-4.183
LiV(CoP)2,34.1853,25.2583,-8.927
AgGe2N3,3.3668,5.2845,1.9177
Sm2ThAg6,33.5741,29.5549,-4.0192
TaSn3P,23.1486,22.4731,-0.6755
Ce6Cd2Ag,24.2833,25.3295,1.0462
Np2AgAu6,50.4614,51.176,0.7146
Ga2NiN3,3.6631,5.3567,1.6936
CaSmY2,19.5334,17.6162,-1.9173
Rb(SiIr)2,23.2832,22.2244,-1.0587
BiMo3P,28.0889,26.2727,-1.8162
Sr2Sb2Au15,43.2183,42.9603,-0.258
MoRh2Br,25.8121,21.6898,-4.1223
Ce6Tl2Ag,31.3134,32.3735,1.0602
Li5Co2Cu3O10,23.5317,19.6127,-3.919
LiCa2Be3Si4,22.6229,16.8992,-5.7237
NpCu2Bi,35.0387,37.1816,2.143
Pm5Y4Hg,25.2232,24.5453,-0.6779
Zn2OsN3,30.596,24.3281,-6.2679
V7Tc2Ru3,94.6619,75.7066,-18.9553
V2CoP,66.4836,52.4367,-14.0469
Ti2CdNi2,9.7443,9.1528,-0.5914
AgSbRu2,28.304,25.1388,-3.1653
In2Co3N4,73.1361,63.5132,-9.6228
Li4Co3CuO8,21.2202,18.825,-2.3953
Cr3N4,9.605,8.5078,-1.0972
V2Co2Cu,60.494,48.2045,-12.2895
Sm5Y4Hg,25.3353,24.7011,-0.6342
CeI3,22.1561,24.341,2.1849
LiCu2P,5.8038,5.0821,-0.7217
Pr5Y4Hg,11.9585,10.1466,-1.8119
LiCuP2,9.2875,7.0449,-2.2425
Pu2CdAg6,39.1191,34.0343,-5.0848
Sr2ThZrAs4,32.7261,28.5983,-4.1278
PaGaRuN,38.3116,39.6939,1.3822
ScBi2,32.6911,36.7577,4.0666
Cr2SiTc,31.4413,26.4636,-4.9777
PrY5Hg4,24.4084,18.3453,-6.0632
BaY4Hg5,25.8673,20.1957,-5.6716
La2TbAg6,35.0629,26.7142,-8.3487
Ru2PbAu,33.4258,36.2697,2.8438
TlSiSb,37.3577,32.7381,-4.6197
Pr4Y5Hg,13.5024,11.9855,-1.5169
Rb5Sr3Br12,0.0,0.0,0.0
Pr2ErAg6,22.8449,18.6603,-4.1845
TbY2Hg3,17.1449,14.5742,-2.5708
Cr2SiTc,31.6186,26.4636,-5.155
Cr2SiTe,19.1634,17.2745,-1.8889
Ti4MoOs,6.5603,9.6946,3.1343
Y2AlHgMo,32.3529,23.2713,-9.0816
Nb8N5,86.6129,71.0524,-15.5606
CdOs2Pb,39.8951,42.5332,2.6382
Ti4ReMo,5.7875,9.5464,3.7589
TlSiSb2,39.1333,33.5461,-5.5871
Ca2TcPb,39.1856,36.0623,-3.1233
Lu2ScPb,31.007,33.5321,2.525
YMoN3,23.5917,19.8141,-3.7776
Ca2TcPb,39.141,36.0623,-3.0787
Sr5SmSb4,26.2934,23.4136,-2.8798
CaTcPb2,50.9783,48.9015,-2.0768
SmPaAu2,46.2828,49.1621,2.8793
ZrTlSb2,59.7448,51.349,-8.3958
TlMo2Au,32.691,35.2628,2.5718
La2AlAu6,42.6603,39.9504,-2.7099
Rb2GeBi2,22.5876,22.6557,0.068
BaGePb2,24.878,26.9064,2.0284
Ta2AlNi6,12.3702,14.7757,2.4055
SmSbRh,32.4522,28.217,-4.2352
MnTe2Pb,54.7121,48.4976,-6.2146
Y4HgPd3,30.8336,24.4219,-6.4118
TlCr2Si,21.717,20.0663,-1.6506
ZrSb2TeW,55.2631,46.8087,-8.4543
Ba(GePb)2,20.9624,23.046,2.0836
BeNi2Br,6.1739,8.5994,2.4256
HfUTe4,62.7913,55.6653,-7.126
BeNiBr2,7.6685,8.7083,1.0398
SmY2HgN,39.1611,32.7876,-6.3735
BeNiBr2,7.1955,8.7083,1.5128
ZrTlN2,30.1238,29.0931,-1.0307
Be2NiBr,4.7072,4.3779,-0.3293
YMnNi,100.6675,83.7833,-16.8842
Ce2(InAu2)3,35.3313,36.5334,1.2021
Cs2(InPb2)3,38.4425,39.0833,0.6408
PmY3Hg4,17.8402,14.0789,-3.7613
LiV3Co,80.2592,63.1466,-17.1126
NbCdP2,42.2004,37.5196,-4.6807
ZnIr2Pb,41.2668,39.8311,-1.4357
ZnIr2Pb,41.2508,39.8311,-1.4197
LiCuO2,17.2772,13.1113,-4.1659
ZnIr2Pb,41.3184,39.8311,-1.4874
GdURu2,32.43,36.4438,4.0139
TaAuSe2,45.1857,41.74,-3.4457
RbNa2Al,12.4319,10.2971,-2.1348
CsUTe4,38.1689,39.0073,0.8385
BaAsPd2,6.2297,9.5604,3.3307
Ba2LaZr,34.7162,28.2642,-6.452
AlCr4Si,15.7618,13.5748,-2.187
CoSiSe,22.964,20.9949,-1.9691
Ta2SiC,26.5647,28.0575,1.4928
Re2OsAu,42.7095,47.7698,5.0604
Y4HgIr3,24.5564,24.7005,0.1441
AlCoNi2,23.7269,19.3856,-4.3412
ZrCrS2N,50.8472,39.061,-11.7863
Re2OsAu,42.584,47.7698,5.1859
Pr2AlAu6,30.3518,31.6588,1.307
ReAsIr,22.7892,30.5812,7.792
TaBe2Sb,26.2013,23.2611,-2.9402
Ta2BeSb,32.6789,31.4944,-1.1845
YPt2I,48.7642,37.1918,-11.5723
In3(SnPb3)2,34.6941,35.6027,0.9086
AlCo3Ni,31.2812,21.2838,-9.9974
Mn2GeC,68.0089,51.6946,-16.3143
Tl2Te2Au3,43.5019,44.769,1.2671
AcV(H4Pt)2,30.9253,24.7137,-6.2116
HfTaTe4,51.3257,46.1762,-5.1495
RbBa2Se,9.02,8.0276,-0.9924
GdTlPb,43.9844,46.0883,2.1039
ErPaIrRh,46.5848,46.7815,0.1967
MgOs5,35.8932,39.4541,3.5609
Y2ZnHg4,15.1008,11.9593,-3.1415
GdTl2Pb,45.5907,47.0919,1.5012
CdIr2Pb,40.2169,42.6242,2.4073
V4CoC,89.6006,69.1043,-20.4963
ZnCr2Si,11.5176,9.2313,-2.2863
Li2GdPb,20.4067,22.6606,2.2539
CeLuNi2,22.841,22.9179,0.0769
As2Pd6Se,25.7071,25.772,0.065
Y3AlO6,15.7974,15.7575,-0.0399
Na2Ti2Nb,45.9493,37.3881,-8.5612
CeGePd,16.5741,19.7278,3.1537
YCr4Hg,22.2192,18.2194,-3.9998
YReHg4,15.4378,14.3948,-1.043
SrSiTe3,27.2732,24.038,-3.2351
Ag2AsBr6,15.5669,14.2174,-1.3495
GdTlPb2,46.1115,47.8554,1.7439
TcMoRh,52.914,45.3655,-7.5485
Al5Cr,0.0,1.9497,1.9497
SmSb2Pb,41.3715,37.47,-3.9015
Al2ZnGe2,19.2346,14.9625,-4.2721
Np2AsPt6,75.8412,58.1895,-17.6517
YCuNiHg,43.0099,37.9632,-5.0466
YCoHg2,20.9129,17.487,-3.4259
YHgP4,13.9054,11.1814,-2.7241
Eu2Co3Si,7.6841,10.2515,2.5673
AlTcCl2,27.7555,22.7862,-4.9693
GaSiNiOs,10.9123,14.0021,3.0898
Ce3Zn7Cd2,13.6779,15.1218,1.4439
YAl,23.3306,4.2642,-19.0663
Zn7Pt2Au3,31.0048,26.9997,-4.0051
BaTaAs2Se,32.4467,30.8067,-1.64
Eu2CuPb,28.6336,30.4298,1.7962
MgCoW2,25.7605,26.5913,0.8308
Zn7Pd2Rh3,19.4668,16.6753,-2.7915
InFeSe2,31.8346,25.6172,-6.2174
Y8ZnHg4Ru3,28.3767,21.3095,-7.0672
Tb5Sc,23.0337,25.1719,2.1381
ReAgAs2W,54.9379,44.7003,-10.2375
Y(AlSi)2,28.8709,22.4045,-6.4664
Y(ThOs)4,40.5002,44.514,4.0138
Tl2SbPb,49.7862,47.8687,-1.9175
CrSiPt,38.0018,27.6289,-10.3729
ReMoI3,28.8094,26.7398,-2.0696
GaOsRu,0.0246,10.4642,10.4396
Ac(TbAl3)2,14.6746,16.7847,2.1101
Tb(ErAl3)2,10.9806,13.2874,2.3068
GdYHg2,19.3765,17.6055,-1.771
Sr(Al3Ag)2,10.5253,9.8045,-0.7208
Ti2Nb2Mo3,48.308,44.5732,-3.7348
RbNa4Sr,19.0158,15.5511,-3.4647
PuI,47.0253,48.3983,1.3731
YHgPCl2,34.4987,32.2568,-2.2419
TbHfTe4,55.5607,48.277,-7.2837
Mg2VSn2,31.2533,27.245,-4.0083
TcMo2Rh,43.1668,38.2411,-4.9257
K4V2Tc,58.6058,46.2888,-12.317
P3RuSe,15.0553,14.9448,-0.1105
Ti2CuRh,16.0708,15.0371,-1.0337
NaLu2In,27.8352,28.5777,0.7424
BaZn4Mo,8.8934,9.3875,0.4941
LuAlIn,18.4457,20.9822,2.5365
Sc7Pb,10.9139,12.4804,1.5665
Tm(ThAl3)2,19.6514,22.1408,2.4894
AlTl2In,28.7722,31.199,2.4268
CaTcRu3,30.1993,28.4354,-1.7639
CrNi2Ru,19.9741,20.1488,0.1747
Al2Cu2Mo,11.6771,9.1163,-2.5608
Ta2Ti2Nb3,72.6507,64.224,-8.4267
Y(ZrAl3)2,31.6766,26.9972,-4.6794
AcTlTe4,42.6084,43.3307,0.7223
Nb(Al3Zn)2,19.3819,17.749,-1.6329
CrSiAg,19.0767,14.743,-4.3337
Sb2IrPt,49.9297,41.5477,-8.382
TeIr3I,40.848,41.7744,0.9264
Tb5Tl3H,27.2729,29.9458,2.673
TeIrI2,29.0271,31.8779,2.8508
AcPt3Au5,62.9442,54.655,-8.2891
V2Co3Ge2,41.9451,35.4177,-6.5275
Sc2BiPb,23.7057,28.331,4.6253
Th(ZrAl3)2,30.8053,28.8647,-1.9406
TmPaTe4,43.3984,44.0336,0.6352
Al(InAg3)2,22.7197,18.6073,-4.1124
Al(CdAg3)2,22.9166,18.9782,-3.9385
TmTlTe4,37.1027,37.8015,0.6988
Ac2Si4Ir3Pt,39.9133,35.9721,-3.9412
Cr5Si,9.8877,9.2739,-0.6138
Y2Ag3Hg4,21.3274,15.9792,-5.3481
TlTc2Ag,67.8342,54.842,-12.9923
Ac(MnP)2,53.2294,44.8655,-8.3638
TcPtRh2,70.0791,52.4552,-17.6239
TcPtRh2,70.0234,52.4552,-17.5682
Ti4NiMo,18.404,18.4829,0.0789
Ba2MnP2,20.4377,16.0042,-4.4335
TcPtRh,69.3231,53.507,-15.8161
CeO3,0.0,0.8272,0.8272
TmIn2Pb,30.4292,32.062,1.6328
Cs(BeBr)2,9.4951,10.1305,0.6354
Li2CuPb,14.9639,16.148,1.1841
NiBi,17.121,23.2337,6.1127
Al2Cr,0.0011,2.3742,2.3732
NbBAs2Se,54.676,47.1787,-7.4973
Li2LuCu,10.5996,12.0784,1.4788
Ag3Pb4,43.5519,40.6102,-2.9417
NaTiTl,31.0998,30.1146,-0.9852
Tc2PtRh,80.9437,64.0273,-16.9164
PdRu2C,22.4927,23.9083,1.4156
Zn2SiTc,31.6509,27.0498,-4.6011
TcPtRh2,70.2723,52.4552,-17.8171
CsScNbB2,36.109,32.0239,-4.0851
Cs3Rh3O8,0.0,0.0,0.0
Rb2P2Pt,26.3256,16.1752,-10.1503
SrRe3Sn,39.6133,35.9374,-3.6759
Ce2SiO6,0.0,0.5388,0.5388
YHgBr3,11.8093,10.0935,-1.7158
Hf(CuP)2,39.7804,28.8057,-10.9748
LiNiRu2,4.4368,10.5758,6.139
Sc(ReMo)2,32.9066,30.0568,-2.8498
ScRe2Mo,50.0055,42.1957,-7.8098
TiRu2Pt,31.2303,27.6115,-3.6188
TaZnRu,20.0704,24.5649,4.4945
ScReMo2,41.0264,35.5075,-5.5189
LiCeF5,6.8738,9.7588,2.885
Li2Ce2Si,17.3155,17.623,0.3074
MoH2(WSe3)2,34.4158,31.1389,-3.2769
ScRe2Mo,50.0968,42.1957,-7.901
RbNb3B,88.9787,73.0394,-15.9393
Li2SiF,9.3727,8.4131,-0.9596
Rb(PRu)2,26.5235,24.2479,-2.2756
Cs2SmHf(AsO4)3,-0.0,0.0,0.0
ScRe2Mo,50.2912,42.1957,-8.0954
Cs2Al2Ge3O10,1.8234,1.8089,-0.0145
Ta2Os2O,22.2031,28.5035,6.3005
V2Zn2Co3,49.4096,36.4355,-12.9741
CdPb2Au,42.9509,44.704,1.7531
Ac3GaPt5,71.2121,56.5576,-14.6545
PaAg3Te5,41.1991,37.67,-3.5292
Mn2ZnIn,56.7441,45.481,-11.2631
Np2CdGa,42.0595,44.9174,2.8579
Sc2Re,45.901,37.0988,-8.8021
Cd2PbAu2,37.0572,38.1335,1.0763
ZnSbTe,31.969,28.3522,-3.6169
TbTm2Al,17.9947,21.299,3.3043
Tb2(TmAl)3,18.9914,20.7429,1.7515
Ba2SmPaAs4,15.7963,17.8415,2.0452
Co2TcAs,37.706,30.3389,-7.3672
Tl2SbRu4,31.4448,31.7104,0.2656
Ti4SnBi,1.7637,6.0496,4.2859
YRh2I,28.0308,22.7123,-5.3186
Tb3(TmAl)2,20.8156,22.8478,2.0323
Ce2Mg,13.082,18.173,5.091
Pm2ErPb2,31.4956,34.9174,3.4218
LaY(ScHg2)2,13.4982,10.9316,-2.5666
CrNiIr2,36.1946,37.2221,1.0275
SmY2(GaAg)2,19.1545,18.3616,-0.7929
ZnGeSbTe2,29.7588,26.9622,-2.7965
Sm4YAg,19.5755,20.8558,1.2802
SrMoPd2,15.0195,14.419,-0.6005
LaMn2Be,56.803,43.0934,-13.7097
K2(SnSe2)3,33.5081,28.7505,-4.7576
ReTe3,42.831,41.4701,-1.3609
PmNd(YHg)2,20.5278,17.9787,-2.5491
Sr2TaTe4,36.9044,32.7503,-4.1541
TePbI4,30.8554,30.9905,0.1351
Sb2TeMoPt,50.0958,38.1749,-11.9209
Y2AgSnPt,42.6101,31.9916,-10.6186
Ba2SmUAs4,16.0883,18.0088,1.9206
ThSc5,9.5271,12.5266,2.9995
CuSi2Ir,20.9274,19.4025,-1.5249
Pm2PbBr,35.1377,33.6248,-1.5129
TlTeI4,30.5943,30.4857,-0.1086
Pm2Y2Hg,25.5185,21.8342,-3.6844
Hg3Au,10.7898,11.5509,0.7611
TbY3Hg4,21.731,17.2776,-4.4534
Ca2YTmHg4,8.211,8.1435,-0.0675
Er2Ga2Ni5Ge,7.7423,9.8689,2.1266
Li2YErHg4,11.8531,10.3841,-1.4691
YTcHg,82.4337,68.0161,-14.4176
CoSiRh,22.9765,17.7647,-5.2117
LaGe2Pd2Pt,31.8915,25.8349,-6.0566
ReRuS2,42.6303,37.8013,-4.829
Cs2PrPCO7,9.8302,6.2971,-3.5331
RbSrRu2Se,39.4595,33.5168,-5.9427
ThI,38.8449,43.7845,4.9397
BaTaSi,19.1226,18.1464,-0.9762
Np2IrOs,56.3262,60.7676,4.4414
Al(GaAg3)2,23.0756,18.2803,-4.7953
InSbPt2,60.7404,45.5569,-15.1835
NaTeW2,31.1806,33.9899,2.8093
Nb2V2W3,93.6909,82.2765,-11.4144
InNiIr2,22.5072,27.2889,4.7817
Al2TcSe,39.4228,31.6671,-7.7558
Sr(AlN)2,0.0915,2.4671,2.3756
Tb6Nd2SmY,20.1496,22.9177,2.7681
Fe6GeB2,-0.0,-0.0,0.0
CrSiAs2,22.4627,18.8057,-3.6569
Al2TcSe,39.1676,31.6671,-7.5005
CuSi,8.2673,7.8195,-0.4478
Sc3Tc,64.4457,48.3675,-16.0781
Hf3ZrRu,110.705,81.1636,-29.5414
Sr2Zn15Pd2,9.0565,10.0291,0.9726
Sr2Br,14.9715,13.772,-1.1995
Ca7Cl,4.7697,5.5866,0.8169
V2Re2W3,64.5215,60.6919,-3.8296
NCl,0.0,2.5689,2.5689
Mn6GeB2,58.9187,44.7905,-14.1282
Rb2PtI7,24.7916,22.4584,-2.3332
Al2TcSe,39.4525,31.6671,-7.7854
Y2Ag2Hg3,23.0366,17.2075,-5.8291
LiAl2W,14.2151,15.1811,0.9661
ZnC3Br,43.6828,30.4801,-13.2028
Tb2Si4Pt3Rh,41.9052,30.122,-11.7832
Os2Pt2W3,126.81,98.3707,-28.4394
RbLa2Br8,16.2244,13.9787,-2.2458
Pr3(YHg)2,12.2686,9.2101,-3.0585
CsSrNb,49.6593,44.0736,-5.5857
AcMg2ZnPt2,42.6482,33.6659,-8.9823
Rb2TaCrI,36.0893,25.9214,-10.1679
Ca2YHg6,6.1356,5.4884,-0.6472
CaSi3Hg,14.6991,8.8804,-5.8187
Tb4TeOs,12.8207,18.6246,5.8039
CuRePb4,44.1685,44.9111,0.7426
SiTcSb2,49.8329,39.5738,-10.2591
KAgAs,17.7185,15.5054,-2.2132
LaAuN2F,22.2899,19.2368,-3.053
CaPb2W,37.8537,39.778,1.9243
BaZrC2,48.8421,37.3555,-11.4865
Na3FeBr,23.9026,19.6108,-4.2918
Pd(PbAu)2,39.6358,41.7425,2.1067
Sb2MoPb,40.0994,35.7951,-4.3043
BaCrSi,14.2589,11.473,-2.7858
YAgHgAu2,35.5737,31.5562,-4.0175
MoOs3Ru,36.5545,36.1958,-0.3587
Os2PtRh,55.6516,48.162,-7.4896
NaAs2AuBr,20.9037,20.4771,-0.4266
BaTa2MnSe,46.9646,40.7111,-6.2535
BaCrSi,13.9719,11.473,-2.4989
YAgHg2Sb,25.6515,19.1999,-6.4515
Ac2ScIrPt,52.7096,44.3495,-8.3602
BaZnHg2,1.5379,2.4734,0.9355
AcScPtO4,57.183,49.3819,-7.8012
LaMn2Be,62.9771,43.0934,-19.8837
MgMnIr,48.4162,42.6955,-5.7207
LaYHg4,16.4466,12.0668,-4.3798
YZrAgHg,44.8525,36.0741,-8.7783
FeTcTe2N,36.1568,32.4561,-3.7007
Ca(AlSi)2,20.2391,16.0346,-4.2045
LaAl3V,39.5172,30.2484,-9.2687
YAgHgRh2,36.9165,25.7614,-11.1551
CsBa2Ta3O10,7.0937,7.1621,0.0685
La6Nd2Al,40.3494,29.2414,-11.1079
CoSCl,21.9219,17.7004,-4.2215
MgAsP2,14.2821,12.1204,-2.1617
Ac8Sm6Pt,50.3214,49.9006,-0.4209
ZnSe3,38.0676,31.4488,-6.6187
AcSmZnPt,45.9868,40.7912,-5.1956
Nb6AlRu2,98.0417,82.6749,-15.3668
Ta2Nb6Al,102.9791,87.6062,-15.3729
MgZnSe,19.9052,17.7802,-2.125
Fe2RuPb,37.8378,30.5236,-7.3142
NaBeNi3,9.0393,9.5289,0.4895
Y2Al4Ag3Hg,25.2052,19.1985,-6.0067
BaNaMg14,4.3373,4.1554,-0.1819
NpMnRu2,50.4816,47.4467,-3.0349
Ba3ZrRu,23.6928,20.5902,-3.1026
Mo4Ru3,19.0461,19.3348,0.2887
Hf3Ru2,81.7455,62.6494,-19.0961
SrMg2TlIn2,18.0003,19.0758,1.0754
SmYHg4,12.0846,10.9282,-1.1564
Pr2Nd6SmY,13.6101,15.9058,2.2957
BaCu2Re,25.7385,20.802,-4.9365
BaZr3Ru,62.4663,52.4321,-10.0342
RbSr3Ca,11.5739,10.6174,-0.9565
Cd3Ni,15.8851,16.2428,0.3576
BeGaI3,23.6191,23.9602,0.3411
Ti3(InCu)2,9.6555,12.0317,2.3762
Ta(MnSe2)2,60.6874,49.3477,-11.3397
NdYPtRh,43.3546,35.31,-8.0446
K2BiSbW,33.8221,31.4537,-2.3684
Sc2Se3,22.9743,21.928,-1.0463
Sc3GeC,20.1132,16.2149,-3.8983
CeYHg4,12.0426,10.809,-1.2336
ZnFe3H,0.0,0.5792,0.5792
Th(BPt3)2,59.6073,44.1111,-15.4962
Zr2Ti3Cu2,34.5367,29.7383,-4.7983
PrNd2YHo,13.4237,15.7236,2.2999
NaMg14Cu,5.4707,5.0163,-0.4544
ZnPtSe2,48.563,37.3315,-11.2315
Tm2PbF8,13.4542,14.7077,1.2535
NiPt2Cl,47.9854,35.0314,-12.954
Y2Be4CuIr3,23.9373,21.6241,-2.3132
SrLa2Se,41.4355,30.5842,-10.8513
NaB2CI,32.2474,25.7031,-6.5444
YTm2HgN,36.1894,33.131,-3.0584
BaSr2Br,10.9969,10.5717,-0.4252
Y2Hg2Pb,30.3599,22.8119,-7.548
In(CuBr3)2,10.9065,11.0055,0.099
NaLi(ZnH3)2,1.5885,1.5629,-0.0257
NaLi(H3Au)2,9.2069,9.6731,0.4662
Tm4TeIr,28.1652,31.4088,3.2436
TaP,15.6898,19.7407,4.0509
YInHgRh,29.4426,23.7951,-5.6475
Ba3Li(BO3)2,3.5088,3.6285,0.1197
CrSiBr2,25.6739,22.5571,-3.1168
MnNiRu2,60.2159,49.8764,-10.3395
Cs4V2PO4F9,17.9518,15.2336,-2.7182
AsOs2Ru,22.7125,26.4979,3.7854
Ga2BiAu2,29.7746,31.7538,1.9791
Y4HgPd12,23.6043,21.3773,-2.227
UPaN,13.8346,23.7185,9.8839
TaP3Ru,20.227,15.4966,-4.7304
Ti3HgN,0.0,0.0,0.0
MgRu,10.3863,12.7741,2.3878
Cs2Zr(Ge2O5)3,1.8736,1.9305,0.0569
TaHgI2,17.3518,19.3114,1.9596
Cs2Ga2As2O9,13.6628,12.627,-1.0358
Pr3(CuSn)4,41.0697,35.1581,-5.9115
CePd6Au,22.0349,23.6284,1.5936
Y2Ag2Hg,28.2385,22.4594,-5.7791
YAsRu,19.2696,16.4502,-2.8194
GdCoP,0.0,0.0,0.0
YCoHg,32.1724,25.9003,-6.272
RbNaMg14,4.0544,4.1928,0.1385
TiSbSe2,31.4414,26.1286,-5.3128
BaTa2MnSe8,45.871,38.6366,-7.2343
YCoHg2,24.016,17.487,-6.529
Cs2Zr3OF12,15.2224,15.4008,0.1784
Cs2Ca4U(GeO4)4,18.5016,17.0319,-1.4697
YTeAs2,18.552,19.3824,0.8304
TeRh3Pb,49.6054,40.0119,-9.5935
Na2NpIrO5,10.5251,13.0249,2.4998
Dy(AlB3)2,3.9809,6.7503,2.7694
YTc2Sb,95.9312,78.5601,-17.3711
EuTmGa,22.1243,24.4644,2.3401
CdInSN2,20.7254,18.2893,-2.4362
Re2GeC,62.6452,51.5698,-11.0754
ZrCd2InN,33.4214,29.7849,-3.6365
CrBSb2,19.8551,16.7064,-3.1486
Y12Tm7Sc,19.4662,20.8883,1.4221
Ce3Nb2N7,29.3139,26.753,-2.5609
Ac2ScSb4Pt3,58.0231,46.0071,-12.016
BaInSe2N,23.9969,20.6259,-3.371
Nd3Pa,35.618,38.3052,2.6873
NaNd2PbO5,6.0582,7.5863,1.5281
AcSc(PtO4)2,41.3773,34.2806,-7.0967
Cs3Nd(PO4)2,0.0,0.0,0.0
Nd3Np,30.0253,33.3322,3.3069
Cu2BCl6,5.1018,3.7494,-1.3523
ScBe2Tl,19.4662,17.7707,-1.6955
AcAl2Pd2Pt,31.875,28.8342,-3.0408
Nd3Pa,29.9784,38.3052,8.3268
Zr(AlB3)2,11.7564,12.1346,0.3782
Y(ScV)2,49.5768,41.3441,-8.2327
AcAl3PdPt,24.3857,23.3602,-1.0256
CsK2B6BrO10,0.0,0.0,0.0
LaYSe2,38.6354,32.0639,-6.5715
AcZn2SiPt4,56.1829,42.607,-13.5759
UTiTe4,39.8706,39.8928,0.0223
Au3SeN,39.6,38.0541,-1.546
NaSr(MgTl2)2,30.6271,31.056,0.4289
Al(HgPd3)2,11.9504,14.031,2.0806
YHoN,50.0144,45.0392,-4.9752
AcNiPt2,55.5709,44.7805,-10.7904
Mg3IrC,22.6921,20.1676,-2.5245
AcZnPtAu,51.6734,45.9919,-5.6815
Ti4CuRe,10.9925,14.869,3.8766
TlGaAu6,42.8513,43.9024,1.0511
Mg2IrBr,15.1165,16.6654,1.5489
Tm6Cu2Au,22.2953,25.2931,2.9978
Ac4PdPtS2,58.4401,52.5767,-5.8634
Ac3Bi2(Pd2Pt)2,49.5463,46.0986,-3.4477
Ac2Sn6Pt,37.5739,35.6892,-1.8847
MgPSe2,22.1777,18.9871,-3.1907
Cs2K3P3O10,12.2366,10.2347,-2.0019
BeAs2Rh,20.9149,15.7221,-5.1928
SrScGaC2,30.6413,23.3612,-7.2801
CrCd2Si,16.2576,15.2383,-1.0193
CsBaNb,52.0173,44.976,-7.0413
Ac2PdPtAu,50.4605,48.0766,-2.3839
BeAs2Rh,21.1894,15.7221,-5.4673
AlRe2Mo,29.4073,30.7556,1.3483
BeIn2Pb,20.5455,23.7057,3.1601
PuMgTl,35.9156,38.7216,2.806
Tb2Be4SiPt3,37.2432,28.6107,-8.6325
AcGa2Pd2Pt,37.174,32.1803,-4.9937
AcPrHgPt,36.5645,32.14,-4.4245
ZnFeIr2,27.6759,27.1764,-0.4995
Sn12Sb5Pb3,20.3551,18.856,-1.4991
RuPtC2,51.7369,39.5808,-12.1561
CoHgPd2F,12.3531,11.527,-0.8261
CuAgAu,28.4668,28.2327,-0.2341
ReAs2Ir,26.4597,29.2518,2.7921
Nd3Ga2GePd9,18.1991,19.0638,0.8647
BiSb2TeAu,47.8537,42.9439,-4.9098
Ac2TlPt,66.6431,62.6608,-3.9823
AcPrPPt,37.272,32.7734,-4.4987
ZnPt2Se,58.6166,43.5176,-15.099
NpFeTc2,64.1505,58.4534,-5.697
Pb2CS3,51.2557,42.2098,-9.0458
Na2BiSb2,35.3847,30.5991,-4.7855
In5(PbO4)3,3.1985,5.0342,1.8357
Mg3SiP,8.1535,7.83,-0.3235
NaAc2NiO5,12.6241,13.2866,0.6625
ZrPbSe2,22.1964,19.039,-3.1574
ReAs2Ir,26.4845,29.2518,2.7672
Rb12Pb3Au5,14.7322,15.1305,0.3983
Li2AcPtO4,34.2607,30.2148,-4.0459
Ti3(PdRh)2,20.6017,19.035,-1.5667
Re2AsIr,33.8244,37.8733,4.0489
HfThZrSc,78.4079,65.8944,-12.5136
Tl12Pb3Au5,42.2709,43.5929,1.322
YHoNiAu,59.9017,55.6981,-4.2036
LiAlW2,23.3151,25.4407,2.1256
Sr3AlAs3,9.3745,5.8063,-3.5682
Y3Tm6Tl,22.8434,25.9739,3.1305
Y2SnB2Ru5,41.5872,37.3994,-4.1878
LaZr3Sb,78.6835,62.5342,-16.1494
Ti4GaCo,31.677,25.4051,-6.2719
NaPm2NiO5,3.5601,4.3102,0.7502
Ac2Tl2SiPt4,66.4076,53.9666,-12.4409
AcIn2Pd4Pt,32.5398,31.0612,-1.4785
YB2Ru,54.4574,47.095,-7.3624
YSn2Ru,28.4289,25.7215,-2.7075
Sb2IrO,35.2142,34.3435,-0.8707
Al(VB3)2,28.9216,25.1225,-3.799
BiPt2Pb,55.9638,45.7726,-10.1911
Zr2Ti3Zn2,34.7459,29.9259,-4.82
AcTl2Pt,64.0172,58.0036,-6.0137
Pr3Pb5O12,0.0,0.0,0.0
Ti2VGaN,28.7644,25.0919,-3.6725
Ca2InTc,30.9802,28.0059,-2.9743
Ti2In2Cu3,10.0186,11.9462,1.9275
LaOsN3,9.8885,4.2334,-5.6551
Ac4AsPtI2,49.2585,47.2706,-1.9879
YSnRu,31.5291,26.2119,-5.3172
Ac2Cu3Sn4Pt,58.7477,50.8743,-7.8734
AcZnSnPt,45.0321,39.8908,-5.1413
YPtI3,34.4042,29.2814,-5.1227
TcSb2Ir,56.7905,49.321,-7.4695
SnPbF4,14.3093,15.0855,0.7762
SrY(AsPt)2,39.9494,29.8169,-10.1325
GdSc5,9.1978,11.23,2.0322
Sc3Pd5,18.3582,16.7936,-1.5646
U3RhN,40.2086,43.0418,2.8332
CrCo2Si,9.311,10.3742,1.0632
BaSc2Pb,15.6844,17.9758,2.2914
Co2NiSe,35.6241,29.8311,-5.793
BaScPb2,27.5876,29.5635,1.9759
SrCuGe2,10.0055,11.8739,1.8683
CaAcPt10,79.7402,56.9157,-22.8246
ScBeTl2,29.7366,29.6672,-0.0694
AcHgPtPb,51.0567,46.3408,-4.7159
TcBPCS,45.3349,39.6388,-5.6962
Ba2ScPb,14.4266,16.211,1.7844
ScSb3Pb,40.7295,33.8682,-6.8613
Hf2Ti3Tl2,58.0534,47.3531,-10.7003
TcAgN2F,27.7829,22.7634,-5.0196
KMgIr,19.931,21.1017,1.1707
ScBeTl2,29.5736,29.6672,0.0935
Cs(SrZn)2,13.364,14.0546,0.6906
TaP,0.0,19.7407,19.7407
Ac6Ru(PtI)2,58.5464,52.8264,-5.7201
NpUIr,60.5231,64.6164,4.0934
Ca(B3W)2,9.1875,12.3601,3.1726
Li2Pb3(IO2)2,42.2831,37.9161,-4.367
VAuN2F,39.2883,33.4576,-5.8307
Ac6La2Pm3,51.5283,49.7177,-1.8107
Cd2PdPt2,43.0389,34.3485,-8.6904
Y2B2Ru,75.4284,63.7562,-11.6722
MgSbIr2,33.3722,34.2762,0.904
OsRuC3,51.891,40.7341,-11.1568
RbBa3Se,10.5974,9.1802,-1.4173
Ac4CoPtI2,49.0474,47.1834,-1.8639
Y2SbAs2,11.4213,12.5855,1.1642
MgCuIr2,28.946,28.6543,-0.2917
Sm5Cu3,18.0471,20.4715,2.4244
AcInPtPb,56.1876,51.5229,-4.6647
Y2HoNi,64.1776,56.9097,-7.2679
MgIr4Se,37.8617,38.6096,0.7479
CoSnHg2Rh,16.3706,13.7295,-2.6411
Re2Ni,33.981,29.1855,-4.7955
La2(Pm2Tm)3,31.4437,29.7901,-1.6536
Ga2SiRu2,11.3827,9.9237,-1.459
In2FeHgSb,24.9346,21.9956,-2.939
Ac5Dy3,50.6523,53.1383,2.486
Li2PIr,18.0995,15.9389,-2.1606
Li2AcPt4,59.8944,45.2848,-14.6096
NiSb3Rh,42.4493,31.2202,-11.2291
Dy(HoB3)2,9.1912,12.1923,3.0011
LiAc2GaPt6,66.7609,50.9083,-15.8526
PmYTcPd,71.8762,62.6105,-9.2657
Ti4FeBi,6.5189,9.6315,3.1125
TaVHgN2,44.6618,35.4574,-9.2044
CrFe2Si,18.0158,12.2615,-5.7543
Nd2Sm6Y3Pu,26.131,27.7731,1.6421
YBeRu2,9.671,9.7614,0.0903
YBeRu2,16.413,9.7614,-6.6517
Y2Al3Zn4Ag,21.6711,17.4824,-4.1887
V2Re3Mo2,62.0284,53.8908,-8.1376