Formula,E_hull_DFT (eV/atom),E_hull_ML (eV/atom),Delta (ML - DFT)
NaLiP2O,19.7572,17.3651,-2.3921
SrMn3Rh,72.6324,57.7865,-14.8459
GeSbTeN2,20.8852,18.3139,-2.5712
PrSm2InN,15.1994,15.4896,0.2902
TeRuS2N,54.4641,43.7475,-10.7166
Tm(NbB3)2,34.8094,31.9022,-2.9072
Nd2NiPb,26.6649,30.0063,3.3414
AcZr(CuGe)2,31.9054,30.113,-1.7924
DyY4Sc,15.2977,16.8385,1.5408
ThZnSi2Ir5,37.1117,36.6428,-0.4689
LiAl2Br,11.2396,11.9029,0.6633
Ho4CuRu3,21.2839,23.7038,2.4199
La6Cu3Sb8Pt3,46.9299,33.0563,-13.8735
YHgCl,52.4835,51.4334,-1.0501
Dy2Si3IrPt4,49.1813,36.0399,-13.1414
Y3HgAu4,32.5331,31.5111,-1.022
Li2Y(InHg)2,14.9939,13.5854,-1.4085
PuZr4Sc,78.4337,65.6693,-12.7645
K2TiN,3.0679,7.0768,4.0089
Y4Hg2Au,35.2729,29.6098,-5.6631
YHgAu,32.0188,23.8297,-8.1891
Hg2Ge2Pt,18.2428,13.6463,-4.5965
Ta4CuSe8,41.0815,37.6829,-3.3985
Y2HgAu2,38.7362,34.702,-4.0342
DyTm(CuGe)4,11.725,13.5505,1.8255
YbFeSeO,21.0626,19.1033,-1.9593
NaScC,13.6037,10.3718,-3.2319
Ta2TiOs,29.7902,34.5045,4.7142
NaSiRu2Pb,31.8788,26.889,-4.9898
TbTmZnGe,18.0157,20.7338,2.7181
ErZr4Sc,64.1118,51.5737,-12.5381
YPuGeRh,37.8641,34.7495,-3.1147
BaGeBrO2,11.2157,12.6662,1.4505
InNi2Rh,20.3019,19.1862,-1.1157
Y2HgAu,36.6347,32.0918,-4.5428
BeAl2W,22.5436,21.0107,-1.5329
Zr2CrTe,61.7928,51.7624,-10.0305
ZnReTe2,44.4592,37.7703,-6.6889
Sc2AsW,27.4006,25.7582,-1.6425
Tl2Fe,34.4671,36.6352,2.1681
Y6In3Ru,13.0557,12.555,-0.5007
LaRuSe3,41.8183,32.7873,-9.031
AgPtS4,53.9195,39.2184,-14.7011
Tl3GaRu,37.3716,37.3913,0.0197
SrCuSn,32.3685,30.1107,-2.2578
AcVSb2,70.5792,59.7878,-10.7914
TlGaRu3,24.5719,25.0939,0.522
Sr3CuPt3,39.7834,31.1114,-8.672
Tl2FePb,41.5838,41.1833,-0.4005
AgS4I,43.6945,34.0079,-9.6866
AgHgS4,40.0056,29.555,-10.4506
IrRuC2,41.4107,34.5645,-6.8462
AsWSe,52.2386,51.9618,-0.2767
ZnCdTcP2,27.0207,24.387,-2.6338
YHg2Au,23.9658,22.1714,-1.7944
AsS4Br,37.6944,29.2788,-8.4156
Tm4ZnCu3,18.5016,21.2442,2.7426
YHg6Pb,12.5428,11.423,-1.1198
Na2Te2Pb,36.7508,34.0038,-2.747
Tm2CuRu,9.2783,14.5702,5.2919
SrY2HgPd,27.6308,21.8387,-5.792
AsWSe,52.9516,51.9618,-0.9898
HgSbSeN2,21.5756,16.985,-4.5905
CaAcCuPt,42.7367,35.3138,-7.4229
LiBiSb2,32.8296,29.5871,-3.2425
CdRu2C,24.0474,23.3647,-0.6827
RePS2Cl,49.5325,37.1021,-12.4303
Sc2AsW,27.4155,25.7582,-1.6573
CaThAu4,42.7098,44.4597,1.7499
Nd2Er3Th2,38.534,41.4524,2.9184
Mn5Nb2VB2,81.4558,66.1996,-15.2562
Cs3AgO,20.4893,19.7036,-0.7856
CsNaCo3,15.4388,15.0151,-0.4237
AlMo2Pt,40.5042,30.6063,-9.8978
YInHg2,17.2271,15.0511,-2.176
Ca2YHgC,24.0872,18.8811,-5.2061
Nd2Ho3Th2,38.0794,41.0333,2.9539
Ca2As4Rh5,26.2145,20.1487,-6.0658
TaOsPb2,46.2683,51.5417,5.2734
Re2BiO,53.4891,53.3415,-0.1476
AlMo2Pt,33.4756,30.6063,-2.8692
Ni2PRu,11.0028,12.0152,1.0124
CaTb(ZrAs2)2,25.7451,24.0344,-1.7107
NaAgPb2,40.2436,38.6762,-1.5674
GdGeBr,7.5578,12.2924,4.7345
Y3InHg,28.0181,23.1,-4.9181
Na(AgPb)2,38.5333,35.5966,-2.9367
TlCdBr2,22.787,23.6013,0.8143
Y5InHg3,25.4858,20.0591,-5.4267
NaAgPb,36.0967,33.2552,-2.8415
NaCaLa2Pt,44.1078,29.8004,-14.3074
Al2ZnCu6,7.9034,7.6494,-0.2539
SrMnZn3,28.3741,24.4302,-3.9439
SrNiMo,29.6246,26.4044,-3.2202
Tl3CdBr4,24.0619,24.683,0.6211
CaCe2(InAu)3,27.8356,29.3579,1.5223
CaLa4In15,25.0144,22.1993,-2.8151
SrCa(SnPt)4,45.8702,33.8257,-12.0445
CdIrN2,10.9636,15.7237,4.7601
NbAlB,26.9572,28.2471,1.2899
TaOsPb2,40.3932,51.5417,11.1485
NaTc,34.4293,32.6317,-1.7976
Tb2Zn3Ge2,13.1676,14.5927,1.4251
LaTb2(ZnGe)2,19.3354,19.3993,0.0639
CsCa(NbBr3)6,36.0204,31.2527,-4.7677
SiPb2,40.3749,39.6837,-0.6913
MnInS2,52.3379,41.4089,-10.929
Ac2MgGa2,18.5101,22.6687,4.1587
Ca2As2Rh,10.55,10.0864,-0.4636
TaOs2Pb,43.7424,47.4086,3.6662
SbMo2As,21.6048,21.9481,0.3433
Ca4Co3NiGe4,14.79,12.4149,-2.3751
TlFePb,38.6312,37.7965,-0.8347
MnNiPb2,78.5652,72.5201,-6.0451
MnNiPb2,73.5761,72.5201,-1.056
CeGdGe,20.7202,23.6296,2.9093
GdMgGe,0.0,2.9945,2.9945
Pr3Fe5Se12,16.9691,10.735,-6.2341
GdFeGe,12.4777,15.4345,2.9568
GdGe2Bi,25.8635,28.1405,2.2771
Y2InHg6,13.0241,10.8493,-2.1748
Rb2NaSmCl6,1.8194,3.5254,1.706
FeNiPb,49.6488,40.6541,-8.9947
NiOsC,11.9913,15.2776,3.2863
TaInSi,24.4927,24.6085,0.1159
TlFePb2,41.9752,41.5198,-0.4555
Gd2TcGe,39.8891,38.3882,-1.5009
TaInSi,24.022,24.6085,0.5866
GdFeGe2,11.4914,14.5799,3.0885
GdTiGe,0.0,2.8479,2.8479
LiU(AlP)2,34.796,31.0432,-3.7528
Tc(AgI)2,38.0409,32.8297,-5.2112
Gd2(Mg2Ge)3,9.8219,10.3506,0.5287
GdGeCl,4.8073,9.5237,4.7164
YbGdGe,1.77,7.1843,5.4143
GdScGe2,24.9268,21.3015,-3.6253
FeNiPb3,51.1998,45.6754,-5.5244
Gd2FeGe,16.6903,19.0155,2.3251
CuSbSeN2,21.6935,18.0769,-3.6166
FeNiPb2,50.4908,43.9276,-6.5631
Gd2Ge2Ru2C,24.8829,25.2054,0.3225
TlFePb2,41.8244,41.5198,-0.3047
GdTcGe2,34.7738,33.8591,-0.9147
K(SnBi)2,29.0234,30.5682,1.5448
KAcPt,50.5408,44.0244,-6.5164
GdGeW,0.0,2.6489,2.6489
KZrAu2,47.5652,44.4105,-3.1547
Gd2GeSe,27.6316,27.8831,0.2515
GdScCuGe,27.8014,25.6179,-2.1836
Y2InHg4,16.8785,14.3145,-2.564
Mn2NiPb,90.1538,78.4308,-11.7229
PrGd2Ge,15.4203,17.641,2.2207
Li2AlSi2Ir5,24.0398,25.6112,1.5713
GdScAgGe,30.5489,25.6212,-4.9277
Y3InHg12,10.2954,8.3156,-1.9799
Nd7Pb3C2,37.1998,35.1283,-2.0714
LuFe4Sb,19.6133,18.8446,-0.7687
ReRu2I,24.2233,25.6141,1.3908
ScInPb2,33.6129,34.2849,0.6719
BeSbS2N,50.3325,37.4378,-12.8947
MnBe2Pb,38.4354,34.9968,-3.4386
Pr5Nd2Y3,3.459,5.0009,1.5419
GdSiGe2,15.4696,16.0875,0.6179
GdSnGe2,17.3698,19.8243,2.4545
Gd2FeGe,16.7558,19.0155,2.2597
Gd2GeN,16.0858,19.3929,3.3071
BeFe2Pb,25.0593,20.6328,-4.4265
Gd3In3Ge2Ru,19.6224,21.5868,1.9643
GdTiGe2,16.3583,15.9298,-0.4285
ZrCrS4,48.0322,35.308,-12.7241
Mo3OsW,78.1217,63.989,-14.1326
SrRe2Te,43.1987,39.7544,-3.4442
BeFePb2,36.4089,33.5663,-2.8426
YInHg2,17.3379,15.0511,-2.2868
AlSiIrRu,33.0842,29.5022,-3.582
Gd3Al3Ge2Pt,30.7809,26.0393,-4.7416
Mn2BeNi,76.5805,66.4921,-10.0884
Mn2BePb,63.4956,55.0293,-8.4663
PmYCo2,31.9109,29.2279,-2.6829
Pr2Ho3Er8,24.5801,25.3926,0.8125
Gd3Al3ReGe2,27.129,25.2175,-1.9115
PrThGe3,11.688,15.0084,3.3205
SiRh3I,37.3937,26.8808,-10.5129
AcLa2PtO5,32.6738,28.4625,-4.2113
BePb3I,45.043,46.2528,1.2098
Cu2SiB2Ir5,25.3598,24.6507,-0.7091
K2HgTe,15.7937,15.1256,-0.6681
Mn2BePb,63.2531,55.0293,-8.2239
CsThTe2Au,38.9055,40.7329,1.8274
YTlHg,30.1077,30.9466,0.8389
MnBePb2,51.5458,47.6578,-3.888
Ac2Zn3Pt4Au,54.9692,44.0845,-10.8847
MgSn(H3Ru)2,2.2303,3.0033,0.773
Co(CuSn)2,44.3288,38.4675,-5.8613
CaI2,12.0679,17.1373,5.0693
ScIrRh2Pb,48.1884,36.6816,-11.5068
Y2TlHg,37.5975,32.7181,-4.8794
CaCdAs2Pd5,14.1982,15.7764,1.5782
Y2TlHg,37.7414,32.7181,-5.0232
Ca3YCd4,15.3438,14.7843,-0.5595
Sc3AlIn,9.6986,9.7506,0.052
YZrTlHg,49.6949,42.6176,-7.0774
K3(GeSe2)2,23.0279,20.4803,-2.5476
Ce2MgIn2,14.4889,17.2357,2.7469
K3(GeAs2)2,6.52,7.5316,1.0116
TlInCu3,18.9657,19.8505,0.8848
RbCaNpI6,22.6391,23.1492,0.5101
CaZn3Pt2,27.5518,19.448,-8.1038
ScRh2SeS,49.9426,39.4485,-10.4941
ScBi2Pb,41.5649,43.2758,1.711
CaPrCuSe3,33.0539,27.0395,-6.0144
UTa2AlC4,38.4767,32.9067,-5.57
Er2PtPb,49.4822,44.0281,-5.454
Pr2Ru(CN3)2,34.5722,28.7477,-5.8245
Co3CuSn,28.8278,26.0645,-2.7633
UAl2Rh,30.3711,30.014,-0.3572
U3Al7Ag2,24.0291,24.9755,0.9464
UAlIn,30.623,33.6005,2.9775
UAlCd,30.3665,33.1312,2.7647
Ca2ThNi9,9.3486,9.46,0.1114
U2AlGa8,18.7158,19.9898,1.2741
Ca2Tm(Zn3Pt2)3,35.9087,25.8059,-10.1027
CuGeSb2,26.8686,22.9497,-3.9188
LiInOs,22.5262,23.5618,1.0356
TmCu9Au2,15.3714,17.0511,1.6797
BaY2Os,43.7304,39.7287,-4.0017
Li5In4Pb,15.0746,14.2216,-0.853
ScIBr3,2.9833,3.1715,0.1882
K3BaNa8,19.4176,15.7765,-3.6411
LiTa4In,29.1713,30.8648,1.6935
Li2In2Pb,17.6566,17.4062,-0.2504
Si2Ni2Bi,14.2721,14.6171,0.345
LiLuInRu,18.3892,20.2851,1.8959
CaTh(AsPd)2,20.0083,22.5817,2.5734
NaLiTbIn,18.9596,18.2707,-0.6889
Zr2FeSi4Ir3,38.2387,32.0807,-6.158
LiScInPb,20.7114,20.752,0.0407
InAg2W,63.9066,50.5654,-13.3411
C2ICl,36.9406,27.3654,-9.5751
Th6Ge3P2S,39.7361,41.9283,2.1922
LiCaIn6,15.9669,16.3338,0.3669
YPuAgRh,41.2657,38.3244,-2.9413
Ni2SbAu,30.8503,28.5554,-2.2949
La2TmMg2,24.2328,19.5983,-4.6344
AlRe3,20.5551,26.2719,5.7168
Li2Dy2ErIn5,15.5175,16.6972,1.1797
Ca2Tm(HfAs2)3,43.1721,33.8216,-9.3505
Na2Pb3I8,29.2618,29.2331,-0.0288
Ca3NdPb12,41.5863,42.63,1.0437
Li2In2Cu,8.5913,8.0864,-0.5049
ZnGaGe2,5.875,8.6596,2.7846
ScNbPd,37.307,31.298,-6.009
FeOsW2,95.2767,77.8876,-17.3891
NbGe2BC,54.2048,43.7467,-10.4581
LiInCu,10.6174,10.972,0.3545
NbAlB,41.5572,28.2471,-13.3101
TbTm3N4,13.4424,15.5047,2.0622
RbYHg2,12.8531,9.9633,-2.8899
Pr2Th4Pb3N2,39.513,39.6585,0.1456
LiGdIn2,18.1792,19.0859,0.9067
Zn(GaGe)2,5.746,7.4725,1.7265
In2AgW,61.0005,49.6137,-11.3868
CsGeO3,9.1236,8.6445,-0.479
Sc3ICl,21.8928,20.6317,-1.2612
Li(DyIn2)3,20.6332,22.2371,1.6039
Y2Hg,19.6788,15.5053,-4.1735
K2TePt,38.8203,30.0587,-8.7617
InAgW2,65.5321,55.6627,-9.8693
Pr2InSi2,2.056,2.491,0.435
Li4TmIn5,14.783,14.112,-0.6711
Mn2Fe2Co3,44.9594,34.7097,-10.2496
InAg2W,63.8839,50.5654,-13.3185
Pr6GaPd2,0.0,0.2068,0.2068
Mn2Ga2Fe3,40.316,31.7655,-8.5505
Y2HgS2,41.7588,30.241,-11.5178
LiIn2W,21.1693,22.2178,1.0485
CsNa2TlHg4,15.1963,14.3001,-0.8961
CsCeO3,9.8532,10.4517,0.5985
LiLuIn,19.2588,19.6413,0.3825
LiGdIn4,18.8123,19.3641,0.5518
K2BeW,20.0969,18.751,-1.3459
RbYHgS3,31.3189,22.7077,-8.6112
YHg3S,21.6752,15.9797,-5.6955
LiInTe3,30.4468,27.758,-2.6888
Ca2TaHg,11.8938,14.1613,2.2675
LiGdLuIn,21.7377,22.975,1.2373
YPu2Rh9,49.544,39.6155,-9.9285
Cs4LaPa3O12,18.4213,19.5956,1.1743
NaLiIn2Se,23.5362,20.2166,-3.3195
Ca2La(InPt)3,42.432,31.2485,-11.1835
TeAsCl4,13.4083,12.2445,-1.1638
Mo2Pd3Rh2,30.2969,24.6181,-5.6788
AsPAuC,34.126,30.2499,-3.876
NiPtI3,33.6613,27.9656,-5.6957
Cs2NpPdO6,17.9979,18.9657,0.9677
CaCe7Sb8,32.9922,28.9789,-4.0132
Li2YbIn,14.8847,14.8292,-0.0555
Mo3(RuRh)2,37.9294,31.8363,-6.0931
Na2Al2As3,14.5553,10.8505,-3.7048
Mo3(RuPt)2,39.1162,31.1892,-7.927
Na2Al2Sb3,23.4331,18.8562,-4.5769
Sr2Ca(Cd3Pd2)3,17.9334,17.8917,-0.0417
TlZnMo,25.6711,27.214,1.5429
Ta3(MoRh)2,33.8461,33.0583,-0.7878
Tm2Mg2Pd,16.4365,19.0582,2.6217
Sc2SiMo,29.2157,28.5386,-0.6771
NaFePb,24.2043,24.065,-0.1393
LiInMo2,14.1703,15.4182,1.2479
MnNbCl3,50.6619,41.1081,-9.5538
ScFePd2,24.731,24.7146,-0.0164
CaAcLa4,41.8188,32.577,-9.2418
TbY4Hg,20.6924,18.5657,-2.1268
KNa3Ge,13.174,10.2,-2.9739
AlPb2W,37.5842,39.5199,1.9357
Cu4RuRh2,27.6645,22.4545,-5.21
Be2RhPb,21.3815,20.1473,-1.2342
Na2Pm2Tl3,35.6685,35.9908,0.3222
GdYHg4,12.9257,11.8029,-1.1228
NaCdSn2,21.4854,21.5311,0.0457
CeIn2GaCl6,4.6289,6.8815,2.2526
YHg3,9.9844,8.0867,-1.8977
Cs2LaNF,21.5632,18.3351,-3.2282
CdAuBr2,22.3158,23.6901,1.3743
AgBP2S,20.7342,19.6487,-1.0855
TiReN3,61.0811,57.3086,-3.7726
NiSbBr2,26.8438,23.3502,-3.4937
Sc3HgO,34.4486,35.924,1.4754
PrSiRu2N,32.0418,28.1076,-3.9341
Yb(AlGe)2,27.5742,23.8229,-3.7513
Cs2SmCoO4,3.9632,7.4337,3.4704
K2Na2Sr3,16.26,15.0152,-1.2448
OsPtI3,41.3665,35.4867,-5.8798
K3(RbNa)2,12.7463,10.4872,-2.2591
SrTi2Cr,21.759,20.7177,-1.0413
YGaHg3,12.1316,9.9041,-2.2276
LiIn2Sb,22.2977,19.3723,-2.9254
LiErMnIn,38.387,34.1273,-4.2597
LiTaIn,20.9044,21.8773,0.9729
FeReW2,40.2982,42.1371,1.8389
LiInRe,22.1308,23.5837,1.4529
Na2Pr2Tl3,27.2141,27.4259,0.2118
YGa2Hg,16.5139,14.9738,-1.5401
Cs2TcO6,15.458,15.6936,0.2356
Eu2Ag2Pb,27.6281,27.3234,-0.3047
Cs5Hg2AuO,23.2426,22.3428,-0.8998
LiScMnIn,32.6863,28.0155,-4.6708
Li3InRu,9.0738,8.7803,-0.2935
KBeW2,26.7623,27.7031,0.9409
Li2CrIn,5.405,5.9895,0.5845
PrY2(SnHg)2,21.0731,17.294,-3.7791
YNi4Hg,30.4589,28.0205,-2.4384
Li2Ca2TbIn5,11.2476,12.1058,0.8582
Li2InCu,5.437,6.8848,1.4478
Tb8As4PS3,27.0953,25.0868,-2.0084
LiInW3,30.9756,32.1133,1.1377
KSr3Pd,6.4587,9.876,3.4172
Ge2MoOs,22.6588,23.2979,0.6391
HoTl2Cu,34.107,35.7401,1.6331
Cd2OsW,94.0203,75.733,-18.2873
LiThIn2,27.5563,28.8941,1.3377
CdTe4Se,39.8022,35.9588,-3.8434
Hg2IrI,15.1072,17.1272,2.02
LiIn4Pb,22.8858,22.9647,0.0789
Y3(Ag2Hg)2,30.4763,23.9527,-6.5236
Cd2OsW,94.1805,75.733,-18.4475
TlTcI2,48.0579,44.8336,-3.2243
Li5InPb4,23.4658,24.2252,0.7594
Pr12YHo7,9.1594,9.5372,0.3778
CdOsW2,98.5684,83.4172,-15.1512
Pr3NdNi3,11.3335,8.4046,-2.9289
Ca3CdGe3,4.776,8.5449,3.769
CaThInI6,20.9163,21.6437,0.7275
LiUIn2,28.3563,29.4349,1.0786
KBeW2,26.9401,27.7031,0.763
NbPtSe2,82.1096,64.5622,-17.5473
KRbRh2,26.1395,19.519,-6.6205
NaSF4,18.0388,13.8174,-4.2214
Sc3CdN,1.6232,3.7384,2.1152
Zn3SnBr,11.6758,11.8533,0.1775
TlP2Br,18.0037,15.5093,-2.4945
Zr2NbSb,95.5527,77.411,-18.1417
SrWSe3,47.8923,33.6802,-14.2121
LaRu2Rh,44.6323,35.5734,-9.0589
Cs3PdO4,17.8842,18.5107,0.6265
Tl2PBr,29.1361,29.7123,0.5762
Tl2PBr,29.2478,29.7123,0.4646
Li3InRe,14.4865,14.2436,-0.2429
Rb(Cd2Sn3)2,18.4663,18.9019,0.4356
YHgPd2C,30.071,24.5408,-5.5302
Al(PtAu)2,50.246,40.501,-9.745
Na2Si2Au3,31.3132,28.3993,-2.914
Li3TaIn,13.6196,13.6543,0.0347
CaTb3(SmRh3)2,35.041,28.7775,-6.2635
Na2Sr3In2,18.2394,17.9664,-0.273
Na3(CdPb)2,30.9376,29.345,-1.5926
NbRePb2,72.5677,68.3449,-4.2229
AcTb4Sc,29.9632,32.1281,2.1649
LaCoF2,12.5386,9.7611,-2.7776
NpTlInCl6,12.5555,14.5523,1.9967
TiCoRh,3.1167,2.643,-0.4737
LiInSn,12.0276,12.4594,0.4317
As3AuCl,18.4522,17.7996,-0.6527
TaMn2Sb,70.354,59.4911,-10.8629
ReHg2Br,13.6747,14.5786,0.9039
Ga2Ni2Ag,7.5347,9.4604,1.9258
ScAs2W,29.3113,26.3565,-2.9548
RbNiI,10.8066,11.355,0.5484
RbGaSn2,10.0133,11.1834,1.1701
LiInPb2Br,34.8763,33.7787,-1.0976
Cs2CuSiTe4,26.3657,25.2675,-1.0981
K3In2Sn5,14.8865,14.9371,0.0506
K(SbPb3)2,46.2683,44.4589,-1.8094
Li2InW,16.3806,18.2784,1.8977
NaLi2InMo,14.0972,12.9762,-1.1209
Sc12Sn5C2,23.0552,18.3767,-4.6785
LiIn2Sb,22.3151,19.3723,-2.9428
CsRb(CuBr3)2,9.7325,9.3269,-0.4055
Er4ScTc,60.9338,56.9095,-4.0243
LiTb2InO,26.2718,25.9263,-0.3454
Ca2PrNdAg4,16.1777,14.3081,-1.8696
DySnPd4,15.5639,17.6271,2.0632
LiMnIn2,36.1755,31.5053,-4.6702
Li2InRu,10.4401,10.8015,0.3614
LiCaV2In,58.5216,46.0043,-12.5173
Na3(TlIn)2,30.6303,29.0646,-1.5657
ScAsW2,35.7516,33.8529,-1.8987
UGaNi2,15.3539,20.2841,4.9302
YbCuF4,5.1246,6.139,1.0144
TiPt,38.7302,28.967,-9.7632
SiBIr3,29.4332,30.3046,0.8714
Na3(AsP)2,24.1272,19.9274,-4.1997
Sc(VIn)2,56.7401,45.9816,-10.7585
NaLiZrAg2,38.2775,30.3477,-7.9298
As2AuCl,19.7821,19.4114,-0.3707
RbSnC2Se,41.313,30.931,-10.382
ScAsW2,36.0609,33.8529,-2.2081
FeWAu2,35.4088,36.3793,0.9705
Ca2PdI,11.8745,13.5509,1.6764
PrZr2F11,10.3334,8.1347,-2.1986
Pr7C3Br10,7.9386,4.6008,-3.3378
ZrTeOs2,56.3658,53.7267,-2.6391
ScAsW2,36.0073,33.8529,-2.1544
CuBiTe2,36.4769,36.747,0.2701
ZrTeOs2,56.1853,53.7267,-2.4586
Y2Ho5In3,19.5053,20.7892,1.2838
NaS,22.1327,15.3259,-6.8068
ZrNiBr2,31.916,28.403,-3.513
CuBi3Te,42.9335,42.9533,0.0198
TaTiOs2,30.8313,36.7972,5.9659
CsLaAuN2,26.5358,23.3737,-3.1621
CsNiB3,7.9399,9.2712,1.3313
ScAsW2,35.9522,33.8529,-2.0993
Ca2ReNi,34.1043,25.6031,-8.5011
Hf3Ru5,63.6483,50.456,-13.1923
Tm2UMn2,57.8689,54.6037,-3.2652
Pm9Nd4Al11,15.0057,16.3366,1.3309
FeIrW,29.6082,34.0641,4.4559
Th2Ge4Pd3Au,26.2368,28.203,1.9662
YHgMo2,24.0992,20.2543,-3.8448
Tb9Pm4Al11,15.1567,16.9161,1.7595
Tb9Nd4Al11,15.6649,16.8794,1.2144
Y2CrHg,39.0217,30.4455,-8.5762
Mn(CuAu)2,41.4572,39.185,-2.2722
ZnMoRh,23.9004,21.5334,-2.3669
Pm4Sm9Al11,14.579,16.3595,1.7805
FeIr2W,32.9655,35.7184,2.7529
Tl3Pd2Cl7,17.4428,17.9145,0.4717
Tb9Sm4Al11,15.1929,16.9344,1.7415
LiTh2Ge3Pd4,22.3542,24.3131,1.9589
UIrS4,55.6538,46.0164,-9.6374
Hf4Sc9Al11,28.2717,21.245,-7.0267
MnBeZn2,34.5548,27.0049,-7.5499
MnBeZn2,34.6181,27.0049,-7.6131
RuRh2I,40.7707,32.6942,-8.0765
GaNi2AsAu,24.986,22.2713,-2.7146
Ac3Pr2In3,30.1284,31.9685,1.8401
ReHg2Br,13.9895,14.5786,0.5891
TlRh2I,43.4771,36.8048,-6.6723
SiIr2S,39.8969,31.7847,-8.1122
Cs3Sr2Cl7,14.1697,14.7158,0.5462
Li3InSb2,18.9291,15.2417,-3.6875
Mn(AgPd)2,39.7804,34.4492,-5.3312
Ta4Ti9Al11,10.6622,11.3481,0.6859
Tb4Er9Al11,16.4872,18.2089,1.7217
RbSbS4,41.568,30.2883,-11.2797
RbPmS4,36.1935,28.6853,-7.5082
Ca3Pd2Pt,18.1166,16.2215,-1.8951
Sc2CuSe2,28.5189,22.5705,-5.9484
SrCaDy,15.4057,16.0829,0.6772
LiInSb2,28.5668,23.434,-5.1328
BeGa2Sb,12.7656,12.7385,-0.0271
GaNiIr2Se,31.1069,30.6015,-0.5055
Ga2Ni2Os,8.3027,12.6828,4.38
CaPm3Ag4,25.309,23.8977,-1.4113
LuMgIr,14.4283,20.6299,6.2016
LaPr2Ag,18.2511,14.2708,-3.9803
CsRbGaNi2,10.8358,11.2089,0.3731
Ga2NiAg2,14.1727,13.3867,-0.786
BeGa3Ni,6.7951,8.0293,1.2342
Ga2NiBi,19.7288,21.7381,2.0093
Ho3(SiIr)4,28.0305,27.4598,-0.5707
GaNi3I,10.6749,11.9883,1.3134
CuBi3Sb,44.1945,42.3134,-1.8812
YHgSCl2,43.89,40.0801,-3.8099
AcLaS4,55.4052,42.5099,-12.8954
InGaNi2,9.9356,12.5116,2.5761
Y2GaSnHg,27.4039,21.9966,-5.4073
FeOs2W,103.6418,82.5235,-21.1183
Mo2Ir2Rh,37.7124,33.7988,-3.9136
Mo2IrRu2,26.9889,18.0138,-8.9752
AcYHg3,19.6706,19.6302,-0.0404
InGaNi3,10.4717,11.8265,1.3549
Hf2MnNi2,91.4538,71.576,-19.8777
AcYHg,30.2317,30.5856,0.3538
Ta2Ru,29.5771,35.3821,5.8049
Ga2NiPb2,21.9653,23.6756,1.7103
ErH5Pd,6.5063,7.6647,1.1584
AcY2Hg,41.3052,36.7906,-4.5146
UGa4Pb,25.89,27.4842,1.5941
Tc2MoOs2,60.298,55.597,-4.7009
Tc2MoW2,45.1642,46.9438,1.7796
Y6CrPb2,30.7626,29.327,-1.4357
RbSr2MnCl8,17.3107,16.1911,-1.1195
NdUS4,51.8959,42.3953,-9.5006
Tc2MoIr2,51.1211,49.9418,-1.1794
NbReS4,67.4227,54.2101,-13.2127
Ga2NiAgOs,19.8637,19.9058,0.0422
NaVTc2Ir,78.8555,66.4654,-12.3901
CePr2Hf,40.1867,32.7857,-7.4011
Rb3(TeN)2,21.5233,20.3756,-1.1477
RbGa3Ni,8.3913,8.5441,0.1528
CsHfIr2,58.0966,52.6367,-5.4599
Pr2TmN,8.6136,9.6502,1.0366
VCoAu2,53.8524,48.6957,-5.1567
Y(HgOs)2,22.0787,24.0805,2.0018
As(PbSe)3,52.9092,48.8478,-4.0614
La7Tl3Co2,43.8469,33.2983,-10.5485
Sr2AgAs,21.4812,17.3502,-4.1309
Ca3CdCu14,8.3288,8.7856,0.4568
Ti2BiTePb,32.7917,33.2329,0.4412
CsPrP,2.5983,7.4986,4.9003
TiCrSb2Te,39.1423,32.882,-6.2604
SrTiTeI2,22.225,21.2855,-0.9396
SrTiTe2,25.9128,25.3332,-0.5797
TiTeP,9.9783,14.0974,4.1191
LiTiSbTe2,27.3599,24.3372,-3.0227
Cu(SbAs)2,19.6996,16.2075,-3.4921
Sr3TiTe,18.5229,17.667,-0.8558
AgSbAs2,24.3937,21.5423,-2.8514
Y2ZrSb,36.3339,33.1949,-3.1389
TiTe2I,27.6655,28.649,0.9835
Be2CrTc,26.3301,23.2178,-3.1124
ZnPb3Cl,34.1013,34.8417,0.7404
ThPa2(GePd)2,35.8422,39.5555,3.7133
ScBiS2,34.7534,32.0166,-2.7368
TiTeOs3,36.6634,38.0495,1.3861
BeCr2Tc,28.1252,25.4167,-2.7085
BeCr2Tc,28.1824,25.4167,-2.7657
Pr12NdEr7,8.7812,10.3729,1.5917
CsNa2CuSn,38.2991,32.7333,-5.5658
Ti(Te2Br3)2,21.5093,21.0156,-0.4936
BeCr2Tc,28.0941,25.4167,-2.6775
Y2Hg,0.0,15.5053,15.5053
LiErLu2,24.4263,26.8937,2.4674
Cs4PuO4,17.4859,20.0873,2.6013
Hf4TiTe2,95.4075,70.685,-24.7225
NiPtS4,53.56,39.2777,-14.2824
Ga3IrOs,22.9656,24.5181,1.5525
RbHfSn2,42.6404,33.8888,-8.7515
TaPPt4,67.8382,48.173,-19.6652
La2YTl,41.8225,34.1535,-7.669
Cr2PbAu,24.2012,25.9213,1.7201
TiTe4Rh,36.6123,33.4786,-3.1337
TiNbTe,40.6512,37.6238,-3.0274
Hf3Th,124.4226,94.3727,-30.0499
ZnCdRe,61.7157,51.7326,-9.983
YHg2I,15.4195,13.4272,-1.9924
TlCuRu2,24.2567,25.578,1.3213
CdInSnBi,28.6635,30.095,1.4315
Tm3Al3Si2Ir,27.4785,26.9721,-0.5064
HfTlAg,75.7299,61.0297,-14.7001
Ba(SrPb)2,26.009,27.5756,1.5666
ThGePd,30.2038,34.1665,3.9627
Pu3(TeN)2,41.8895,43.8813,1.9918
Cs2YHg4,13.9042,12.4428,-1.4615
Ti2BiTeI,26.8637,27.1108,0.2471
InSb3Au,40.8538,34.9542,-5.8995
Re2PbAu,46.0357,48.564,2.5283
BaSr2Pb,19.664,20.9907,1.3267
TiTe2PI,25.1336,23.0015,-2.1321
RePbAu2,47.5956,49.7799,2.1843
HfTl2O,56.8755,49.1644,-7.7111
RbSn2HgSe6,29.5016,23.7277,-5.774
RbIn(SnSe3)2,30.9179,25.2862,-5.6317
Ba2ScCu,19.1206,15.4353,-3.6853
RuBrN,35.8814,31.247,-4.6344
RePb2Au,48.6832,50.9413,2.2581
Ca3BeSb,19.3927,13.4458,-5.9469
InSe,18.0115,16.7678,-1.2436
LaPb2,51.9164,47.8924,-4.024
Al2AsPb2,30.6344,28.7243,-1.9102
FeReW,40.9695,40.4205,-0.549
FeReW,40.9142,40.4205,-0.4937
FeReW,41.404,40.4205,-0.9835
HfNiSb,63.7657,47.4056,-16.3601
P2RuSeN,27.6154,24.3928,-3.2227
BaMo2P,18.365,17.0115,-1.3534
BaSc4Cu,15.5356,13.5059,-2.0297
Hf2NiSb,81.5951,60.6747,-20.9204
Cu3RuN,29.3911,25.7514,-3.6397
Pr3NdTm5,14.5973,17.3133,2.716
IrRuSeN2,42.5953,37.8329,-4.7624
RuN,15.3363,15.8714,0.5351
ThGe2PdPt2,46.0831,37.8072,-8.2759
Y3(HgPb)2,36.2738,31.8341,-4.4397
Y(SiRu)2,23.7453,19.4517,-4.2936
OsPdRh2,39.4403,35.5658,-3.8746
Ba2Sr2Sc,4.5366,5.8714,1.3348
Nd(GeIr)4,19.0167,22.4644,3.4478
Sr4Pd2N,17.7752,17.2426,-0.5326
NiSn2Rh,25.0304,21.4325,-3.5979
Sr2Ta(TlTe2)3,41.0009,38.3249,-2.6761
PPd2Rh,22.1105,21.1358,-0.9747
SiRu2,24.3128,19.6664,-4.6464
ZrSc2SiC,49.7726,39.2703,-10.5023
Be2Sn2Br,16.3186,12.5123,-3.8063
FeRe2W,40.7061,42.2232,1.517
Er11Tl9Cd4,35.4435,36.7374,1.2939
Sr2PrNpAs4,20.5031,18.8636,-1.6395