Formula,E_hull_DFT (eV/atom),E_hull_ML (eV/atom),Delta (ML - DFT)
BaMgTl2F6,10.0808,12.2053,2.1244
CaTaAl2,11.9905,15.1696,3.1791
SiTcIr,50.0996,44.8144,-5.2852
Mn4GeOs,74.8904,60.0801,-14.8103
MnAgSn4,31.0834,27.1853,-3.8981
MnAgAu4,53.284,48.8525,-4.4315
PtI3N,34.5577,29.8376,-4.7201
OsBrN2,36.4371,30.2402,-6.1969
Ac6PtRh2Br3,50.2834,46.2086,-4.0748
Th4MnAg,58.8122,56.7554,-2.0568
SmYNb6,111.4451,92.7767,-18.6684
Tm4MnAg,37.117,34.6576,-2.4594
IrBrN,19.2068,20.782,1.5753
Ca2Pr2Er,7.2221,8.8941,1.672
CrNiPb3,43.8959,42.5805,-1.3154
NaPmInCu,18.8629,19.4234,0.5605
U2Cr2Ni,40.8448,41.3497,0.5049
MnTe4As,46.2546,40.7126,-5.5419
YTm(ZrNb2)2,101.2363,84.6857,-16.5506
MoOsSe,39.9572,35.3673,-4.59
TaAl2Si,24.3381,23.007,-1.331
PmPtS,49.6157,41.19,-8.4257
NaSnN2,16.0151,14.9229,-1.0923
Cd2Cu2Ru,10.8812,12.8988,2.0176
Ca2PaPt2,32.7928,25.5439,-7.2489
Mo2OsSe,37.1004,31.607,-5.4934
MnSnBr4,26.9876,24.2079,-2.7797
Ca2PrRh2,20.8791,15.9704,-4.9087
MnTlBr4,32.0561,29.1484,-2.9077
CrSnS3,33.8255,25.4765,-8.349
TaAgI3,27.8665,26.3915,-1.475
Ca2AcRh2,34.1227,29.3727,-4.75
MnCdAu4,51.202,48.1574,-3.0446
RbRh3Se5,37.7788,30.1331,-7.6457
Cs2CaNiBr6,9.3881,9.53,0.1419
NaSrSe,25.0184,22.187,-2.8315
LiInCu,10.7739,10.7154,-0.0584
Na2SrSe3,30.1345,25.7654,-4.3691
Tb3Y(ClO)4,18.3617,19.8456,1.4838
SrAcSm2,32.1354,34.5693,2.4338
FeSi4Sb,24.6585,16.94,-7.7185
Ca2C,19.838,17.6205,-2.2175
MnCo4Mo,23.8287,22.0836,-1.7451
NdYO3,13.3931,16.5641,3.171
TaAl,12.8367,19.8971,7.0604
AlReAu2,34.4696,37.1665,2.6969
Ce3OsRh,9.7714,13.0676,3.2962
ScCoRe2,35.9913,34.3633,-1.628
AlReAu2,34.7607,37.1665,2.4058
AlReAu,30.8546,33.8593,3.0047
SnSbPd2,28.4912,24.6994,-3.7918
Pm3DyS,31.0443,29.2915,-1.7528
AlReAu,30.1564,33.8593,3.703
NiSF2,20.7177,17.4317,-3.2861
Cs2TlAu4,41.185,41.7383,0.5533
Li2Cr2I7,15.8545,15.8514,-0.003
GaSiN,5.937,3.422,-2.515
CdSnPb,30.9192,32.5086,1.5894
ScCoRe2,44.9102,34.3633,-10.5469
Al2ReAu,23.2666,25.971,2.7045
Ho2ThPaC4,53.7465,45.8734,-7.873
Ca2AcSm2,21.7207,24.8716,3.1509
NpMnCo4,24.4344,24.3185,-0.1158
TaSi,7.4178,17.5343,10.1165
Ho4TeC2,38.8997,35.1224,-3.7773
Ac2YTmO6,33.2704,30.903,-2.3674
SrAl2Pb,18.2979,19.7081,1.4102
YZr2PaO8,26.6894,25.1861,-1.5033
PmScS2O,70.0165,58.7511,-11.2654
Tm2SbRu,29.9502,30.6395,0.6893
Na3ZrAg,42.0124,32.9536,-9.0588
AcY(PO4)2,17.0344,15.6227,-1.4116
RbBaGa4,7.2947,7.0272,-0.2675
Mg2Co,9.259,6.7074,-2.5516
SrZr2Ag,60.6817,50.5374,-10.1443
InCuNi2,9.727,12.5542,2.8273
PmBSO2,7.1283,11.2706,4.1423
MnFeI4,29.3959,27.6333,-1.7626
BaPmS2,32.5784,26.7653,-5.8131
MnFeNi4,52.393,43.5942,-8.7987
SrTbAl2,11.5609,13.6426,2.0817
Si(SbTe)2,38.3288,31.9936,-6.3352
NaNiCN2,28.6672,25.9035,-2.7637
UFeCo,29.2326,30.0918,0.8592
NdFeCu,18.2529,17.6014,-0.6515
CaTa2Si,28.7037,28.2519,-0.4518
SiSbTe2,36.468,31.5549,-4.9131
InFe(CuTe2)2,34.4995,31.5939,-2.9056
LiTcNi,27.271,27.2976,0.0266
Si2SbTe,29.3536,23.4483,-5.9053
NaYbN,7.1872,10.9196,3.7323
SiSbTe2,36.1201,31.5549,-4.5652
Co2SbN,63.3602,54.3239,-9.0363
LiCa3Sc,7.6444,5.9569,-1.6875
NaSr2N,13.6317,13.7016,0.0699
Ba2GeIrO6,18.1872,16.0559,-2.1313
YAlWO6,14.8206,14.8321,0.0114
MnGaBr4,25.0402,21.4975,-3.5427
MnGaI4,29.7829,27.5284,-2.2544
NdFeRu,29.545,24.4025,-5.1426
VSiTcIr,69.4524,59.1317,-10.3208
Rb2CeSe3,22.8766,19.7997,-3.077
MnGeSe4,49.9352,39.8024,-10.1328
Zr3CoB,60.4905,51.1147,-9.3758
Ca(PrTl)2,16.6977,18.5824,1.8847
Ho4Al2C,25.4129,24.7073,-0.7056
OsPt2Pb,63.0352,52.5615,-10.4737
SrZrBe,45.1224,34.1378,-10.9846
Pm2SClF2,18.7174,17.7244,-0.993
Nd2SmYO6,14.9276,16.2039,1.2764
Cs3Na12F5,12.2905,9.3737,-2.9168
RbTlIn3,22.354,23.0383,0.6843
MnNbTe4,67.9804,58.8451,-9.1353
SrZr2Be,57.493,45.7064,-11.7866
Ca(AcPb)2,43.1802,46.2441,3.064
Ca(NdGa)2,9.7948,12.8932,3.0985
Zr2TlGe2,52.9378,47.191,-5.7468
TlSO3,22.0173,19.6775,-2.3398
Zr4AlCd,69.5128,59.28,-10.2327
Nd3Y(ClO)4,17.9124,19.2169,1.3044
OsPtRh3,47.8732,36.9873,-10.8859
Sr2YTaO6,26.2752,21.8452,-4.43
PmEuErAl,21.3175,23.9367,2.6193
AlOsW4,76.0944,66.3415,-9.7529
SbTeRh3,40.3088,30.1085,-10.2003
CaPr2Nd6Sm,13.3337,15.2842,1.9505
V2BiPb2,78.758,69.0337,-9.7243
BaZn4P,8.0505,8.2468,0.1963
Y3Er(AgS2)4,39.3897,30.532,-8.8576
MnRhBr,53.7553,40.8527,-12.9026
Lu(GaFe)6,18.4892,13.9177,-4.5715
CuSiIrPt,39.3701,33.391,-5.9791
BaTl3Rh,29.5985,29.6711,0.0726
Li3Ga3Ir2,9.3441,11.8512,2.5071
BeAlZn2,16.1287,12.7623,-3.3664
SiIrW4,36.0356,39.168,3.1325
Si2TcTePb,45.3457,38.1494,-7.1963
MnSnPd4,33.4599,29.4481,-4.0118
Ca3C5,40.9515,28.3188,-12.6326
Te3IrI,40.4464,38.8242,-1.6222
SrBe2Ge,7.0321,5.5027,-1.5295
Ba2NaICl,9.834,9.3782,-0.4559
K2Ti8O17,0.0871,1.8672,1.7802
Ho(TiC)2,23.4553,19.7969,-3.6584
Sr2SnGe,11.1901,14.1848,2.9947
Sr2TbP,14.0498,15.868,1.8182
Ca(PuGe)2,24.6984,28.0789,3.3805
Sr2TaAg,32.6004,25.4147,-7.1857
SrTa2Ag,38.397,32.6323,-5.7647
PmSm2(TeS)2,37.6175,33.1806,-4.4369
MnPdSe4,51.3302,41.2657,-10.0646
SbPIr2,33.2729,31.4868,-1.7861
Tl4I2Br,36.8853,37.0699,0.1846
SmTm4Pu3Se8,45.1734,42.1369,-3.0365
SrSi3Sn,27.0358,17.2298,-9.806
Pm2Zn4GaPt3,35.0007,27.8828,-7.1179
MnRhBr,53.6169,40.8527,-12.7642
Ac2Al4GaPd3,20.5687,21.7529,1.1843
TaBe2N,27.7808,27.4523,-0.3285
MnSnI4,34.9006,32.0695,-2.8311
Sr2Si2Sn,32.8635,23.2217,-9.6418
Pm2Zn4Pd3Au,17.4978,19.0789,1.5811
SiTc2Te,60.9528,52.6076,-8.3452
Zr4MnPd,76.4671,62.4076,-14.0595
NbRu3Rh,58.4234,47.938,-10.4854
HfCr2Cd,45.5962,35.0982,-10.4979
K4Au2I,23.1918,22.7093,-0.4825
SrW2Se,44.0857,36.3257,-7.76
YTm2(AgS2)3,41.1892,32.7541,-8.4351
ZrAl2Re,35.9495,34.578,-1.3715
ScFe2I,23.1303,22.936,-0.1942
MnZn4Ga,20.3442,17.7532,-2.591
SrWSe3,45.666,34.2641,-11.402
Pm2Er2Se2S3,40.0244,33.4245,-6.5999
Ca(SmPd)2,12.4248,15.9323,3.5075
SrTe2Mo,30.3223,28.3627,-1.9596
K2DyNpSe4,37.7932,34.4162,-3.377
Ca(AcPm)2,36.9434,38.796,1.8526
Pm6RhSe2S3,36.9964,31.5211,-5.4753
Li3Ga3Ru2,3.796,5.4869,1.6909
Bi2PtPb,63.0173,57.6585,-5.3588
Li3Ag3Ge2,14.0769,11.6951,-2.3818
BiPtPb2,62.4638,56.9976,-5.4662
SiWAu4,41.2884,41.6884,0.4
LaBi3Rh,36.4089,35.1078,-1.3011
NaSr2LaOs,29.1342,25.3833,-3.7509
Ca(PrSb)2,12.6676,10.0314,-2.6363
CsTiAsO5,10.9578,12.3838,1.426
ZnOs2W,88.7195,75.5105,-13.209
PPdN,22.5427,18.6522,-3.8905
Th2HgPd2,26.9058,31.2073,4.3015
YIn(BiO3)2,23.541,24.3697,0.8286
Na2Sr2Te,23.1663,21.5877,-1.5786
CeYInSn,30.1003,26.3819,-3.7184
ZnRe3N,85.4927,73.2478,-12.2448
AlRe2P,41.5624,39.2973,-2.2652
Zn(IrN2)2,37.9364,32.994,-4.9424
Th2CoRu,38.8963,43.1201,4.2238
LaRh3I,44.6352,32.5946,-12.0407
AlReP3,41.0456,32.005,-9.0406
UPd3Rh,34.2993,32.68,-1.6193
Nd2YErO6,14.9897,16.5918,1.6022
Sr3SnGe,14.0455,15.0702,1.0247
SnGe3Pt,28.8256,23.7099,-5.1156
SrSnOs,14.5685,19.5859,5.0174
InSiGe2Se,21.2999,18.4638,-2.8361
La2Sm7Th2,37.5022,35.8437,-1.6586
PmSbRhS,36.5433,29.5006,-7.0427
Pr8Nd2In3,5.5126,6.6868,1.1742
Li3Ho2Tl3,23.2047,25.0753,1.8705
BSb3P,29.2279,22.9469,-6.281
Sc4SiSbC,23.0066,17.5571,-5.4495
AgPRu4,18.2938,18.4241,0.1304
TlAsW2,36.1452,38.5802,2.435
Sr2LaCl7,1.5814,1.9729,0.3916
Sn2As2Pt,25.3275,21.2029,-4.1246
Si2GeIr,20.7924,19.4357,-1.3567
Sb2AsPd4,20.4644,18.658,-1.8064
Tl2AsW,39.4199,41.0303,1.6105
LiSi2IrF,27.2626,23.9454,-3.3172
Pr8Nd3In2,5.8949,7.2474,1.3524
La3Pr2PuSe6,40.3534,32.3255,-8.0279
ErNpSc,27.2856,32.4485,5.1629
Sr2SnAs2,16.633,12.7598,-3.8732
Sc2SbCSe,35.6294,27.1591,-8.4703
Si2TeAs,31.2973,25.6177,-5.6796
NaSr5In4,16.7811,17.5187,0.7376
NaPmY,17.7504,17.8875,0.1371
Ta2PdW,23.3869,30.8827,7.4958
Th7(MnTl)2,69.3596,67.6648,-1.6949
ZrAl6,17.5033,15.8095,-1.6937
TbYNb14,126.5792,103.7554,-22.8238
AlRuAu4,35.2068,37.0328,1.8259
BaCd2GeO4,13.8295,13.2437,-0.5857
MnCuNi3,46.4906,40.2854,-6.2052
LaEr2Hf,63.652,50.8794,-12.7726
CaPr6NdSm2,2.3238,3.2841,0.9603
CaTb2Pr6Nd,2.6793,3.8813,1.202
SiTe2As,38.1623,33.956,-4.2063
Al2SbC,29.1526,22.4165,-6.7361
Zr2AlSi,63.4666,52.5781,-10.8885
Ac4Pm2Pr3,32.6792,35.329,2.6498
NaGdZnSn,20.2542,20.606,0.3518
CaZrAl2,27.5904,24.5879,-3.0025
YZrSbH,32.1568,29.8653,-2.2915
LiCaHf2Ta,66.838,50.1367,-16.7013
CeY(NiH)4,24.4557,21.5126,-2.943
Sc2NiSbC,27.5909,21.1769,-6.414
ZnOs2W,96.4495,75.5105,-20.9391
PmYH6,4.8155,6.4324,1.6169
CaZr2Si,53.3351,44.1482,-9.187
YSnH2Rh,14.7105,10.0245,-4.686
ZnOs2W,96.5718,75.5105,-21.0614
ScSb3C,43.0097,31.8929,-11.1168
BaSbF,13.647,13.2217,-0.4253
SiTe2As,37.7881,33.956,-3.8321
In(SnPb)2,33.4402,34.3656,0.9254
AcPm4Pr,26.508,28.8492,2.3411
Y10Tl6H,25.7069,27.0597,1.3529
AlRe4Ru,30.2523,34.0338,3.7815
In3Sn2Pb3,32.3652,33.2677,0.9025
Sr3BSb,17.7505,16.4692,-1.2813
Th(WN3)2,24.616,22.822,-1.794
RePRu4,32.2472,30.0107,-2.2365
Si3TeAs,29.085,22.4088,-6.6762
MnBeBi2,48.1694,44.3526,-3.8168
MnBe2Bi,34.595,31.007,-3.5879
Ca2Zr,32.5562,30.9572,-1.5991
CeNi2Sb,27.5029,23.6124,-3.8904
SrZr2Ta,64.1975,52.7476,-11.4499
Zr6Nb5,118.0353,98.679,-19.3563
AlSb,16.5751,16.8387,0.2636
Hf4ZrNb15,139.9236,110.3437,-29.5799
BaZrSe,48.357,39.9584,-8.3986
La3Y7Er,25.7503,21.8975,-3.8529
PrTlSb2,33.4099,30.0084,-3.4015
Sr2AgPb2,29.6273,30.1351,0.5078
MnAg2Ru,45.9484,36.3985,-9.55
GaBiPb2O5,19.9256,20.8219,0.8962
Y12H5Pd3,0.0,0.0,0.0
CsTm(CO3)2,8.5328,6.6978,-1.835
Ac3Ce,50.3263,53.0213,2.695
KSc2Mn,30.8303,26.094,-4.7363
NaTlS2,36.2667,30.5281,-5.7386
PmRuRhPb,49.3071,42.4182,-6.8889
AcCe,45.484,47.6849,2.2009
Nd3YCo2,23.5112,23.319,-0.1922
Ce2PmPt2,43.234,35.3832,-7.8508
SrAc2Ce,42.074,44.2384,2.1644
CsSn(CO3)2,27.9479,20.7582,-7.1897
Th3In4,34.4065,38.19,3.7834
TaPd3O,30.6898,29.023,-1.6668
MnCrNi2N,56.3911,46.3702,-10.0209
Sc6Sb2C,14.7612,12.4107,-2.3505
Na6Au5,34.6632,31.8654,-2.7978
Pt(PbW)2,48.6523,47.2135,-1.4388
Si2SeO,14.403,9.9274,-4.4756
In5Te,23.5161,24.2605,0.7445
La3PmSe4,44.6181,37.418,-7.2001
Rb5Na6,14.3428,11.2273,-3.1154
Y2PuCo3,37.0636,32.3438,-4.7197
Zr2Ta3Nb2,84.3636,75.7485,-8.6151
FeNi2GeN,30.0073,22.0229,-7.9844
PaSb3,44.4184,39.2984,-5.12
Hf(NiPd)2,31.4162,26.6697,-4.7465
SrAg2Os,30.1022,27.4051,-2.6971
Ta2SbIr,40.3571,41.8067,1.4495
Y2Ga3Co,22.4799,19.829,-2.6509
NiSbBr2,23.0432,22.7738,-0.2693
YBPtCl2,60.144,46.0504,-14.0935
Cd4PRu,16.7068,18.2225,1.5157
Ce2SmPt2,43.2666,35.4267,-7.8399
NaBiPS2,40.2775,35.8048,-4.4727
BaLiSi4,13.558,8.9875,-4.5705
Cs3Pm2YTe6,31.0074,31.1174,0.1101
Ca4MgN,11.4856,10.1879,-1.2977
TaSbIr2,42.2451,43.0283,0.7831
Co2PAu,24.5903,21.4412,-3.1491
NaPIr2S,41.9126,36.8079,-5.1047
Pr3Pu2Se5,35.3398,33.4108,-1.929
NaCrTe3,31.974,30.7184,-1.2556
AlSb4Ir,38.6247,31.9862,-6.6385
TeO,23.0067,20.6581,-2.3486
Sr2TaTl,37.1374,32.3609,-4.7765
Cr3BSb,14.6581,12.8873,-1.7708
LiFeTe,36.7247,31.476,-5.2486
FeTe,21.4663,21.5677,0.1014
PrPu3Se4,48.907,48.0884,-0.8187
CaAcTb2,30.7926,33.3061,2.5135
LiFe2Te,27.6953,24.6904,-3.0049
Eu3ReO8,5.644,7.5607,1.9167
CaAcTb,32.1135,34.4544,2.3409
CsSrBr3,3.5674,5.115,1.5477
Fe3Te4,24.0953,24.1123,0.017
TeO3,7.1861,6.2165,-0.9696
Li3Te2,13.0237,13.3885,0.3649
Rb2YOsF6,11.3014,10.8022,-0.4992
BeTlPt4,68.3831,50.4501,-17.9329
TeP,19.1837,19.1389,-0.0449
TeP3,8.7821,9.9043,1.1222
AlSb5,38.3463,29.6953,-8.651
NaCdHg4,6.9845,6.5045,-0.48
TeP,19.3339,19.1389,-0.1951
NiP2Se,20.2659,17.8537,-2.4123
Th3Os2,46.9054,54.6354,7.7301
NdZr6Nb5,110.3645,91.4311,-18.9334
NaCeAu4,39.4261,40.0025,0.5765
TeP5,10.28,11.9219,1.6418
Na2Ir,31.2095,29.1737,-2.0358
AsRu3Se,34.2042,33.5649,-0.6393
TaSbIr2,42.0741,43.0283,0.9542
SrGa3Fe2,13.4546,11.474,-1.9805
Rb2Ta2W,27.1673,26.5589,-0.6084
SrCaBeN2,17.0323,16.6667,-0.3657
ZrNb15,138.9049,113.2402,-25.6646
Zr4ReCl,73.7254,62.3227,-11.4026
GeIrN,11.2202,16.3098,5.0896
Ge2PtN,21.3701,20.501,-0.8691
Sn2AsI,18.801,20.2334,1.4324
ErCd3Ag4,26.3999,23.1932,-3.2067
Mn7Be,87.0655,66.2971,-20.7683
ZrNb15,138.8959,113.2402,-25.6556
SrLi2Tc,24.5272,21.7561,-2.7712
MnTc3N,78.0628,62.8331,-15.2297
HgTeI2,22.3206,21.9933,-0.3273
AsRuSe2,45.6083,41.2686,-4.3397
PRu3Br,17.4491,16.9109,-0.5381
BePdPbAu,32.1335,32.5951,0.4616
Sb2TeP,30.1891,25.8981,-4.291
NaSrInSb,25.2881,22.5591,-2.729
Mn2NbCr,87.3522,69.9037,-17.4485
AsPd2N,21.6253,20.0593,-1.566
BePdN3,31.1081,24.7662,-6.3419
SrPtSe,45.1718,35.0536,-10.1182
NaBeMo2Au,27.03,22.8352,-4.1948
BaCrOs2,28.8811,29.6407,0.7597
AlSiSeN2,22.4124,18.2876,-4.1248
PRu2Br,17.0303,16.8181,-0.2122
ScMn2CdRh,55.4529,43.0788,-12.3741
AgSnPb6,46.0827,46.0433,-0.0393
Al3ZnTc,25.8423,20.4172,-5.4251
AuC3F,50.6546,37.8438,-12.8108
Er4InPbO,24.8907,26.5479,1.6572
PtRhIN2,35.0833,27.9535,-7.1298
Au3C5,57.0521,44.3997,-12.6524
Y2GaCu3,27.3673,21.0705,-6.2968
Sm2Sc(SeS)2,41.6737,35.6533,-6.0204
K2MnMo,36.5199,29.7176,-6.8023
Sr2GeW,28.445,22.0944,-6.3506
SmYCBr,36.0581,31.5443,-4.5138
NdScAgRh,27.0805,23.5543,-3.5262
Nd4NO,9.3601,12.5785,3.2184
MgRhW4,34.6522,36.1613,1.5091
Zr4TcCl,82.455,67.5781,-14.8768
SrCeTl2,34.72,36.7375,2.0175
Y2CI,30.4171,25.6388,-4.7783
BaZrOs2,38.8099,38.254,-0.5558
ZnCoMo,13.0507,10.6237,-2.427
SrTa2Cr,58.4639,42.5276,-15.9362
NaSr2GeF,18.9501,18.279,-0.671
IrPtIN2,34.3226,30.7252,-3.5974
Ca2Fe,24.5272,20.3236,-4.2036
La2(PmMg)3,23.1267,19.9828,-3.1438
Cs4Ba3TaO8,11.9612,10.2791,-1.6821
Cu3AuN,13.871,15.4078,1.5367
ErZn2GaNi2,10.8023,12.5673,1.7651
Sc4AlBr,7.1787,7.671,0.4923
BaBr2Cl,2.1571,4.4738,2.3167
Au3C2,49.9597,43.653,-6.3066
BeInTc,38.3062,34.2112,-4.095
NaInPS2,33.8123,29.2438,-4.5685
SrLaZr,54.7813,44.9629,-9.8184
Zr3ZnPb,71.3342,61.4878,-9.8465
NaCdGeBi,26.942,26.809,-0.133
TiCd2Pb,21.7105,24.4613,2.7508
BaZrOs2,45.9535,38.254,-7.6994
In2PtSe2,40.7993,33.0544,-7.745
Be(PN2)2,0.0,-0.0,-0.0
AcYSe3,36.4347,36.453,0.0183
Fe2Si,-0.0,2.0768,2.0768
GaReN3,61.3017,53.8308,-7.4709
CdGeRu2,15.2228,18.5013,3.2785
TlAsRu2,26.1036,26.6412,0.5376
TlAs2P,23.663,22.2912,-1.3718
TlAsP2,26.3997,24.4118,-1.9879
LiAc2(H4Pd)3,10.1371,11.038,0.9009
AlCuTe2,24.2966,22.6836,-1.613
TbSnPt,44.6258,37.7905,-6.8353
NaSb3Os,40.6642,33.8531,-6.8111
TcIBr2N,30.087,25.9731,-4.114
Y3CuPd2,27.2302,21.4097,-5.8206
TaP2N,21.904,19.6226,-2.2813
Y3CuHg2,28.478,21.4971,-6.9808
AlCuTe,19.0153,18.3985,-0.6168
Zn2TcPb,40.8011,37.5922,-3.2089
NdZr2Nb5,116.5007,96.1529,-20.3478
Dy(Y2Er)3,14.4396,17.5913,3.1517
Ce(DyY3)2,12.4304,16.161,3.7305
Y2TaF,33.6069,28.5489,-5.058
YNbIrRu,58.0113,50.8378,-7.1735
ScBe17Pd,6.3002,5.0287,-1.2715
PrEuSe,22.745,21.2791,-1.4659
CaMnBe,45.4624,32.3089,-13.1534
Pm3Nd2Ir3,24.5321,27.2498,2.7176
MnAlSe3,33.0283,26.6347,-6.3936
CePu7Se8,55.6124,52.5221,-3.0903
Mn2NiIr2,70.6863,62.8661,-7.8201
CaMgZn2,7.7965,6.9709,-0.8256
PrTmS2O,25.8662,20.289,-5.5772
Zn(CoOs)2,19.3791,20.5937,1.2146
GeOsN2,27.2364,23.8207,-3.4157
BeCrN2,25.1043,21.6606,-3.4437
Ni2PdWN,24.3058,21.0448,-3.261
CrPt4Cl,65.9409,46.9615,-18.9794
Cs2TmFeO4,10.2608,12.4897,2.2289
SiRuPb4,43.4584,41.3652,-2.0933
NdEuCuS3,15.9841,12.993,-2.9912
Li2ScRhW,20.2121,17.4736,-2.7385
ScNiP2Rh,35.7539,26.5342,-9.2197
SrCrW,33.1529,23.7266,-9.4263
LiSiAs4,16.4793,14.5812,-1.8981
Mn2CrTcN,67.0188,52.5887,-14.4301
ErScBr,15.9363,16.8891,0.9528
MnCr2FeN,39.6301,31.4499,-8.1802
FeSi2NiN,25.6729,18.0429,-7.6299
YTaBe17,6.8681,6.4192,-0.4489
Be17ZnOs,3.7953,4.3328,0.5375
OsSe2IN,51.3386,41.445,-9.8936
La(NbBi)2,82.4658,71.3546,-11.1113
KNa2PSe4,28.5161,23.2608,-5.2553
Li3SmAl3,7.7981,6.4849,-1.3132
Tc3AsRu,64.2696,52.6834,-11.5863
Pr3MoS6,26.1561,18.7921,-7.364
GeAu3N,31.2248,32.2888,1.0641
BaLaCd17,19.7022,19.3775,-0.3248
Ac3H12Au5,10.6867,12.0947,1.408
BaUSe3,22.321,24.4409,2.1199
YCoIN2,75.3982,64.2564,-11.1418
Be17ZnRe,4.8251,4.5357,-0.2894
PaBe17Zn,6.5937,6.0955,-0.4981
NpU2(TeSe)3,52.2935,49.1886,-3.1049
BaReAs2,26.5053,22.5764,-3.9289
Np2Te3F2,32.6679,31.1812,-1.4867
CsTl(ZnCl3)2,7.2907,8.5646,1.2738
Pm2Y3Sc4,10.8927,10.0977,-0.795
Ta4SiRh,35.5836,34.3611,-1.2225
CaMnBe,45.2226,32.3089,-12.9137
NaSn(PbBr4)2,24.2966,21.9506,-2.346
SiSe2SN,34.7959,26.1006,-8.6953
Ac3Sm5,39.8741,42.4202,2.5461
Th2Sn3Ru,30.2282,32.4378,2.2096
RePd3I,24.3876,25.447,1.0594
GaFe8,3.8812,5.1196,1.2383
BaSrN4,2.2908,3.3463,1.0555
TcWIN2,34.053,30.5117,-3.5413
CdHgRu3,15.5831,17.0368,1.4537
LiZr,36.3416,32.0238,-4.3178
Y6Er2In,13.2025,15.4484,2.2459
La4GeN,29.3383,19.2341,-10.1043
Y6InHg2,23.1613,18.0266,-5.1347
Sc4AlSb,13.0862,12.0533,-1.0329
WAuN2,14.2173,19.1564,4.9391
KSeS3,42.2671,31.5816,-10.6854
ScCu2Pb,29.3333,27.0362,-2.2971
InGa(AgTe2)2,32.1479,29.5496,-2.5982
Cd5Re,42.439,35.9801,-6.4589
SmYGa,16.1511,18.4726,2.3216
K4CeY3Se8,29.5163,25.4378,-4.0785
BeCu2P,9.0455,7.6353,-1.4102
LaCeSe2,41.3517,33.4661,-7.8856
BeCuP,8.8558,7.4598,-1.396
ReAuN2,78.3931,71.3185,-7.0746
YSn2Bi,37.8948,33.524,-4.3708
Be3GaP,10.0392,8.9686,-1.0705
ErBe17Co,3.2174,4.1129,0.8954
ReTc2RhN,105.6166,88.9461,-16.6705
Lu3In3Ni2,21.0912,23.0764,1.9853
Sr3BeMo,16.2649,13.2657,-2.9993
LiSiCl4,9.3669,8.422,-0.9449
AlSb2PN,32.8123,25.3646,-7.4476
Ca2Co2Ag,12.8344,10.3828,-2.4517
KSb2Pb,38.6113,34.8198,-3.7915
TmBe17Cu,8.3911,6.3081,-2.083
SrPm2Rh,27.6873,26.4225,-1.2648
Rb2Ce2SbSe6,33.9148,29.0655,-4.8493
Mg2F,6.0269,6.9797,0.9529
TbSm(PuSe2)2,38.6951,36.7705,-1.9246
BeTcRh,47.6059,39.4133,-8.1927
AlGaSbN2,15.9945,11.7231,-4.2714
MgF,0.163,1.1718,1.0088
Pr3Au5S12,30.8855,22.7729,-8.1126
V2P2H5,29.4783,23.7025,-5.7758
BeTcRh2,48.1078,37.5022,-10.6056
Sr2CdSn2,19.3341,18.5481,-0.786
Pm2YHg,25.116,23.4144,-1.7016
Tb3Tm(PuSe3)2,43.618,40.2638,-3.3542
BeTcRh2,48.2623,37.5022,-10.7601
LaY3Ga2,13.1866,12.2364,-0.9503
BeWN2,23.6184,24.5293,0.9109
Tl2TeI,41.3996,41.2514,-0.1482
CuNi3N,8.0612,7.787,-0.2742
CrOsRh2,37.205,31.7212,-5.4839
TiGePt,34.996,27.5243,-7.4717
NdY3Ga2,8.6972,10.9306,2.2334
TaSb2Ir,42.404,40.2044,-2.1996
IrI,13.5695,20.4005,6.831
Y3Ga2Sn,4.1097,5.0504,0.9407
AlIn2Te,21.2109,21.516,0.3051
CaAlSe2,41.9018,33.924,-7.9778
Sr2ScTl,18.2152,20.9979,2.7827
SrScBr,12.582,11.5353,-1.0467
Nd3YGa2,12.5455,15.0292,2.4837
ZrF,33.1031,27.0682,-6.0349
Zr,0.0,0.0,0.0
SrSc2Br,10.6454,11.0143,0.3689
NbAgN2,45.1675,38.2912,-6.8763
ScCrBiS2,44.1789,38.0942,-6.0847
K2TeBr2,14.1324,13.8735,-0.2588
SrScBr2,12.4103,10.6295,-1.7808
TlAgOs2,42.3956,42.968,0.5724
AlRe2W,30.3906,35.6785,5.2879
Ge2As2Pb,14.2354,15.7786,1.5432
SiRhW4,36.942,37.0577,0.1158
AlGeW,43.5014,35.0718,-8.4296
Tb3YGa2,13.5306,16.1323,2.6017
FeSiTcIr,38.4996,34.6115,-3.8882
Be2NbNi2,24.4712,24.1516,-0.3195
ScBe2CrS,23.3175,20.0193,-3.2982
AlHgPb2,27.196,28.8313,1.6353
NaLa(YS2)4,39.9052,30.5887,-9.3165
Ta2OsI2,27.6837,30.5255,2.8418
ZrBePt4,75.7012,55.3838,-20.3174
Ba2GaGe4Au3,19.1645,19.5679,0.4035
Sc2MnTc,88.4876,72.6675,-15.8201
CsCeAgSe3,31.6085,28.9413,-2.6673
ScC,10.7191,7.7068,-3.0124
MgRu4W,37.7008,29.0862,-8.6146
Sc2MnTc,88.122,72.6675,-15.4545
Na2TiBr,19.5123,16.7266,-2.7857
Na3AuSe4,38.6542,32.1712,-6.483
Ba2IrPb,24.0508,25.6313,1.5805
FeNiOs,45.6577,39.7386,-5.9191
Nd3YGe2,18.6501,19.3879,0.7377
Pm2Nd3YSe6,33.7283,30.3364,-3.3919
Tm2Ge4RuPt3,37.4869,30.5661,-6.9208
CrRu2N,26.7322,25.4825,-1.2497
K(YSe)2,20.9349,18.8479,-2.0871
Sr2LiRu,11.3663,13.6292,2.2629
Nd2IrPt3,59.2849,47.8807,-11.4042
Pm3Nd3YSe8,34.6479,31.0684,-3.5796
Rb2NbC,48.3029,39.1583,-9.1446
InFeAs,36.4961,31.1354,-5.3607
CaScSi2,27.2958,20.7811,-6.5147
ZnPAu4,33.7993,34.8726,1.0733
Y2Ge3Pd,18.7931,16.4445,-2.3487
PaCuO4,3.0711,5.8261,2.755
Nd2SmEr7,28.1487,30.3535,2.2048
TbDy2Tm,28.022,31.0834,3.0613
Ga2SnHg2,5.4402,7.105,1.6648
Nd(Y3Tm)2,13.0935,16.3383,3.2448
Co2CuPt2,52.3688,38.0301,-14.3387
Mn2CrHg,46.8114,35.9296,-10.8818
YGe3Os2,14.671,18.3629,3.6919
YTc2Ge3,53.5582,46.5734,-6.9848
Pr3YPb2S,23.5429,21.8464,-1.6964
Ca4LaMo,15.3544,13.5601,-1.7942
TbTm2(PuSe2)3,47.7973,45.0585,-2.7388
Sc4AlSe,12.5222,12.0498,-0.4724
Sr2RuSe,19.2654,19.0347,-0.2306
LiTl4Si,40.361,39.6549,-0.7061
Al3Ge3Pb,26.3956,21.2233,-5.1723
AlIn2Pb,23.9599,25.5728,1.613
TbNd4Pb15,45.3414,46.3746,1.0332
CuP2Ir,25.6054,21.7967,-3.8087
BaGe2PbO,21.1755,20.3442,-0.8313
Mn2AlCr,52.9736,41.6851,-11.2885
Tb2Tm2Mg7,12.109,13.2989,1.1899
ZrGa3Ru,28.9558,25.9862,-2.9696
Ta2SbIr,40.4127,41.8067,1.3939
CdInGa,13.6807,15.865,2.1843
LiMnCd,40.1954,32.5848,-7.6106
Ca2YPuO6,32.3555,30.7369,-1.6187
Na(InPb2)4,40.6132,40.4741,-0.1391
Ta2SbIr,40.4867,41.8067,1.3199
NdPu4Au5,54.4656,56.5408,2.0752
IBr2N,14.6205,14.2265,-0.394
P2AuN,25.2582,22.7938,-2.4644
VNi,47.2679,37.6519,-9.6161
AlRe2Rh,25.2853,28.7203,3.435
Ta2CdI,24.2623,28.088,3.8257
Pm2NdSmTl4,33.4767,35.867,2.3903
Al2ReRh,23.368,22.5865,-0.7816
AcLa4Pm7,37.3043,32.6085,-4.6958
La2Ta,40.4598,35.7621,-4.6977
K4Rb3Na2,10.3992,8.6431,-1.7561