Formula,E_hull_DFT (eV/atom),E_hull_ML (eV/atom),Delta (ML - DFT)
Ba2LaAs,16.3055,12.4083,-3.8972
BaAsP2,11.4285,10.1662,-1.2623
IrOs3W,93.9445,80.1907,-13.7538
Pa2VGa3,41.4004,39.8617,-1.5387
Ba2LaAs,16.2378,12.4083,-3.8295
ReP5,24.1323,19.9978,-4.1345
Nd3YAl8,14.5463,13.7739,-0.7724
PrSmTh4,47.4651,50.4393,2.9741
CsTlC,43.1731,38.2543,-4.9188
YBeCl,53.7846,53.9306,0.146
CsTlC2,48.018,38.7385,-9.2795
Pm3YAl8,13.8995,13.9164,0.0169
La2Pr2Tm,20.1676,15.3865,-4.7811
YPu3Al8,25.8586,25.8246,-0.034
BaAsPb2,28.7801,30.0295,1.2493
LaAgPb2,43.0296,39.4274,-3.6022
Hf3TlP,96.9585,72.2751,-24.6834
Ba3GeAs,4.1701,4.4992,0.3291
TmBeNi,14.8525,15.9717,1.1192
Tl2CdI4,30.0088,30.4208,0.412
Zr(MoRu)2,24.8396,24.0328,-0.8068
ZrAlTc,66.566,55.2581,-11.308
LaAgPb,40.5234,35.6739,-4.8496
La2CeS3,40.8451,28.9405,-11.9046
ZrRe2Te,55.2379,52.3067,-2.9312
LaScTa3,78.0823,66.4705,-11.6118
HfTl2(TeS3)2,60.5639,47.7799,-12.784
Re2IrOs,41.2821,47.241,5.9589
Tl2ZnS4,47.8691,39.2468,-8.6223
BaHg4As,1.7095,2.301,0.5915
LaAgPb3,48.2415,44.1665,-4.075
BaAcAs2,20.6567,22.9815,2.3248
BaCrAs,12.4446,11.7016,-0.743
ZrTiBr2,28.8761,23.5537,-5.3224
CsGaO2F,20.8085,18.2368,-2.5717
Pr4SmTm,6.1052,9.2912,3.186
Sr2NbSe2,48.1092,43.9332,-4.176
ZrAlTc2,72.8166,61.5542,-11.2623
CaSi2Ni,11.506,7.3166,-4.1894
La2Tb2Er,32.5059,27.9051,-4.6007
La2Al2Os,24.2175,19.8184,-4.3991
La2TbTh2,52.4418,48.8055,-3.6363
La2TbTl2,41.8073,37.2687,-4.5387
La2TbTm2,34.5811,31.919,-2.6621
LaAlOs,32.4038,29.1125,-3.2913
PmPrTm4,23.7888,27.1952,3.4065
Rb3U2Ni3S7,30.2971,26.7657,-3.5314
Ba4Te3As,15.9991,15.7207,-0.2784
Ti(TlS2)2,47.2551,38.4032,-8.8519
BaAcSbAs,29.4301,28.9219,-0.5082
Li5Ir,7.5937,9.5614,1.9677
MnCu2Br,34.7682,28.8429,-5.9252
K2ReNi,37.6761,26.9389,-10.7372
Ca(SbPt)2,50.0695,34.6832,-15.3863
Co(HRh)3,16.6566,11.1914,-5.4653
NbTeSe4,62.4129,51.5943,-10.8186
Ba2AsW,13.8678,15.0485,1.1807
BaTe2As,23.7776,23.1618,-0.6158
ScVI3,40.645,34.9066,-5.7384
Ca(Dy3S4)2,39.5243,33.1574,-6.3668
EuCuSi,4.3173,6.9317,2.6144
Pr2Ga3Au2,13.2378,14.2747,1.0369
Ta3MoPb,38.3322,40.3214,1.9892
PaTl2(AgS2)2,50.2845,42.8393,-7.4452
Li2LaTa,18.7873,18.1317,-0.6556
TiAlSb,19.3703,16.5736,-2.7967
KWSe,34.0448,31.3829,-2.6619
KAgW,72.6062,56.1524,-16.4538
Sr2HfSc2,32.503,26.2049,-6.2981
BaZrBr2,30.2718,25.8793,-4.3924
K2ErBiSe4,36.3288,32.0539,-4.2749
BaP2IrS,31.8681,27.3724,-4.4957
BaZrBr,36.7082,29.7398,-6.9684
BeRe2RhPb,37.7629,36.1462,-1.6167
La4SmDy,43.281,32.6675,-10.6135
HgSb2C,34.5602,25.4209,-9.1393
LaSm2Er5Sc,23.8885,24.5529,0.6644
BeTeRhI2,35.8294,32.9953,-2.8341
Sm3Y8Pu,22.0786,23.6899,1.6112
ZnCdIr,28.8627,25.6772,-3.1856
CaBeRh2,33.1887,23.1222,-10.0665
BeAsRh2,25.2345,18.8535,-6.3811
Be3TlRh,20.3089,18.3637,-1.9452
MnBe2Rh,36.7018,30.5196,-6.1822
Mg2RuN,24.6498,25.3175,0.6676
Be2CrRh,14.4477,12.2183,-2.2294
Zn2Cd2Ir,20.3269,19.0438,-1.2831
BeSb2Rh,34.9751,26.8563,-8.1188
BeRh2Se,36.4665,27.4253,-9.0413
BeSn2Rh,21.8132,18.6287,-3.1845
BeSi4Rh,25.8592,17.9769,-7.8823
GaReTe3,35.5729,34.039,-1.5339
Bi4PtAu,54.807,51.99,-2.8169
Th4PtAu,59.1514,57.0458,-2.1056
NaBe3Ni,6.5085,6.724,0.2155
ZnCd2Ir,26.4335,24.0377,-2.3958
Sc3CdPb,17.6644,19.2519,1.5875
Ti3PbF,16.3765,17.3423,0.9658
Cu2SbPd3,19.2902,18.3282,-0.962
Be2ReRh,22.3967,21.9617,-0.435
Be2TlRh,25.376,23.424,-1.952
KNa3Pb,22.2016,19.6416,-2.56
Rb4TlAu,12.3372,12.2584,-0.0788
Rb4CdAg,6.0248,4.8536,-1.1712
Rb4PbAu,11.8058,11.8365,0.0307
LiMoAsBr2,17.188,16.2693,-0.9187
SnMoSe2Br,42.2404,32.579,-9.6614
PtPb4Au,57.721,53.4437,-4.2773
Cu4SbPd,15.2679,14.7664,-0.5015
BeTe2Rh,33.7447,29.4909,-4.2537
RbAgPb4,37.3978,38.001,0.6032
Be3SbRh,19.1681,15.0082,-4.1599
HfOsRu,56.9376,48.8349,-8.1027
Zr3RuPt,80.7499,61.9951,-18.7548
SrTcAg2Br,38.6594,32.2259,-6.4335
BeRe2Rh,32.6771,32.888,0.2109
Mn2NbI,85.6795,69.2023,-16.4771
NiPdC2,38.0109,29.9118,-8.0991
Hf3CrNi,98.5286,72.5702,-25.9584
BeCrTcRh2,41.836,32.1315,-9.7045
Be3SnRh,16.8608,12.4597,-4.4011
MnBe2Rh,31.584,30.5196,-1.0645
Zr(ScSn)2,36.3249,29.1126,-7.2123
LuBeRh2,32.2571,26.7184,-5.5386
Tl3RuS4,49.2559,42.5187,-6.7372
Si2PdRu,19.4417,15.9828,-3.4589
RbSrFe2Bi,24.4954,21.6126,-2.8828
BeTlRh2,37.2719,31.465,-5.807
EuGaAs,8.0381,11.0697,3.0316
RbNbI2,47.7198,40.9269,-6.7928
Zn2Te,19.2142,18.6361,-0.5781
Ac3Pm,54.6209,58.0239,3.403
Sc6AlAs2,16.9555,14.0145,-2.941
ScSeI3,24.7425,23.1559,-1.5866
Mg3BiH8,8.2294,7.428,-0.8013
Tb2BeGa,15.8932,18.3635,2.4703
TcAg2Br,42.3729,36.5215,-5.8514
Ca4ScCo,10.6438,8.6238,-2.02
TaMoAu2,36.8233,39.7231,2.8998
Mg2GeC,19.5604,16.1673,-3.3931
LiReTe,27.7095,29.4327,1.7232
Tl2CdReS,68.2673,58.022,-10.2453
Mg2BiH6,9.4629,8.3666,-1.0963
ZnFe2Br,7.2919,8.0046,0.7126
RbBiI4,23.9734,24.9675,0.9941
Rb4Nb3Pd4,46.2435,39.4769,-6.7666
Zn2FeBr,11.2323,8.2135,-3.0189
Th5U,66.665,69.3505,2.6855
Zr6In3Os,61.8626,50.9103,-10.9523
EuNiBr,7.4463,11.8255,4.3792
SrTi2Te,12.3625,13.51,1.1475
TaTiTe,20.1177,26.7454,6.6278
La(TlBi)2,48.1625,46.5938,-1.5687
Hf2InPb,89.9615,70.0663,-19.8953
Sr2TiTe2,19.5607,19.5701,0.0094
Er(Fe2B)2,0.9272,2.0439,1.1167
LaPm2Pr2Nd,15.059,16.0005,0.9415
Ca2IrSe,53.0545,42.8211,-10.2334
La2InI,35.8806,27.5479,-8.3327
Sr2SiPb,34.3037,29.3908,-4.9128
LaNp2(TlS2)3,55.9174,47.3997,-8.5177
AsRu2Rh,36.6283,29.4362,-7.192
LiAlPb,22.6868,22.263,-0.4238
Np2MnRu,64.3435,63.3879,-0.9556
SrSiPb,41.6062,34.6307,-6.9756
CaIrSe,59.8802,52.5734,-7.3068
CsY(WO4)2,10.5885,10.6618,0.0732
NpBiRu2,39.3451,43.5057,4.1606
NpOs2Ru,42.4249,46.8567,4.4318
NpTlRu2,38.4402,41.4897,3.0495
Si4OsRu2,23.2934,18.1235,-5.1699
TiFeBi2,25.7091,27.7326,2.0235
La3(NdGe)2,31.3137,25.3083,-6.0055
NpOsRu,42.9998,47.6209,4.6212
Np2FeRu,56.9133,53.0458,-3.8675
AuCI3,36.9718,32.9669,-4.0049
Zn2MoI,14.4675,15.1338,0.6663
NpOsRu2,36.2653,41.4394,5.1741
Ba2BSe,8.3355,9.5239,1.1884
SrSiPb2,40.5557,37.2713,-3.2844
KTl3Ru,37.7101,37.8388,0.1287
NiBIr2,23.4983,27.9925,4.4943
PaGa2Ag,28.7812,29.8446,1.0635
BSeO3,10.2282,8.8275,-1.4007
GeOsRu2,20.8474,25.6264,4.7791
Cd2FeSe,21.9274,20.3902,-1.5372
Pr2(SmCd)3,15.2007,16.6961,1.4954
LaCrIn2,26.463,23.7754,-2.6876
Np2IrRu,54.5647,55.3913,0.8266
ThNpRu2,41.9633,46.6525,4.6893
NpRu2W,54.8575,49.486,-5.3715
NpPa2Ru,55.1278,59.4581,4.3303
Ac2Ge2Pb3,43.1703,45.0487,1.8784
TiCuOs2,16.1344,22.5124,6.378
AlPOs2,38.5363,37.5306,-1.0057
HfCu3Ni,34.647,27.4315,-7.2155
Na3(Sb2Pd)2,32.2382,25.8716,-6.3666
MoPbAu2,41.0482,42.8113,1.7631
B2Ir2Os,17.9421,23.3547,5.4126
EuGdNi,22.866,23.6953,0.8293
EuLuNi,22.4814,25.2724,2.791
EuCu4Ni,10.2387,12.1733,1.9346
DyEr2InN4,12.4088,14.8817,2.4728
Eu2NiOs,26.4464,29.2072,2.7609
Eu2TcNi,39.3127,37.7996,-1.513
B3RuPb,15.1514,16.7877,1.6362
Eu3TlNi,28.2198,29.6952,1.4754
EuGdNi2,19.8784,20.03,0.1516
EuBeNi,11.429,13.9203,2.4912
RbTl4Pt,46.1675,41.6488,-4.5187
Sm2ThNb,65.0022,61.6961,-3.3061
AlZnRu2,10.6872,15.3372,4.6501
NaCu2Sn5,40.3218,35.618,-4.7038
EuLuNiPd,21.0328,23.9572,2.9244
Nd2Y(ThS2)3,48.2723,41.302,-6.9703
TaMoAu2,36.7732,39.7231,2.9499
EuNiRh,27.6312,24.8562,-2.775
PrIn2Ge,12.547,13.844,1.297
YTeAu3,39.8025,40.2221,0.4196
Cs2AuIO,33.8064,31.1533,-2.6531
CaTa2Os,30.2701,35.0698,4.7997
TbEuNi2,16.7606,19.7975,3.0369
EuHfNi4,32.5485,28.5105,-4.0381
Tb8Dy3Y,26.4631,28.1256,1.6625
TaMoPb2,40.0959,42.8354,2.7395
K2HgI4,15.653,15.7006,0.0477
Ag2HgBi,29.3594,26.8132,-2.5462
ScInPd3,19.2318,18.7011,-0.5308
LiPrYZn,6.6901,6.9152,0.2251
Pr2Nd3Ge2,11.3337,13.9379,2.6042
Al2ZnCl,2.1595,3.6007,1.4412
YGa4NiRh2,36.6586,30.9754,-5.6832
LaCe2ScS4,44.5425,35.9295,-8.613
YCu(SnRh2)2,48.44,37.2957,-11.1444
AlZn2Cl,5.5926,6.4838,0.8912
Tb3YPt8,66.4204,47.3602,-19.0601
KAgBi,32.4925,30.7416,-1.7509
Mn6Al2Rh,72.4435,58.6148,-13.8287
TaTiBr2,16.4046,19.4657,3.0611
La2YC,47.6069,35.7446,-11.8623
Tm2PtC,52.1534,42.4289,-9.7245
ScMn2Ag,53.2936,43.602,-9.6916
Cu(IrS2)4,48.5516,39.4135,-9.1382
ReAgW2,70.6955,61.7234,-8.9721
ZrTlFeS3,46.0795,37.7043,-8.3752
Tb6Pm3Dy2,26.5199,28.5663,2.0464
Sr2Tl2Sn3,26.9148,28.1533,1.2385
K3GaS3,25.763,19.5086,-6.2545
Be(AgSn)2,23.8985,19.8688,-4.0297
ReAgW,81.2177,68.4958,-12.7219
SrBePb,28.462,25.003,-3.459
NdPu2S3,54.6667,49.0404,-5.6262
Sc(AlRe)2,27.7993,26.9893,-0.81
Re2AgW,70.8696,63.3131,-7.5565
Li2AgSb2,24.1731,19.4885,-4.6847
SrBePb,28.2475,25.003,-3.2445
TaMoPb2,40.0726,42.8354,2.7629
BaY(AgSe2)2,44.9754,36.2517,-8.7237
Y4ErAl5,33.8379,27.4597,-6.3782
TaMoPb2,39.6374,42.8354,3.198
TbNd2ScS4,41.3614,35.3956,-5.9658
NaPd8,18.5275,20.1925,1.665
Gd3In3Si2Au,24.3675,23.9764,-0.391
Cs4SbSe5,37.5495,32.0976,-5.452
InFeSe,26.554,22.0516,-4.5024
Cs2TlSF6,19.2318,16.7259,-2.5059
RbSrCd4,16.8902,15.6894,-1.2008
Se2IBrN,29.1061,23.6897,-5.4164
Cu2IrPd,18.8001,21.467,2.6669
Tl4IBr2,35.2486,35.5511,0.3025
Y2MnTc3,113.9016,96.1242,-17.7774
CsSb3Ir,43.0176,36.4444,-6.5732
KLaAl,22.5015,16.9175,-5.584
Lu2NbPb,65.2985,61.1283,-4.1702
LiTmInHg,14.5678,16.0269,1.4591
NaPuAgGe,34.2767,33.1098,-1.1669
Co2BiIr2,24.3995,29.2732,4.8736
CsGa2Sb,18.7839,18.3728,-0.4111
Sb2IrBr,43.952,40.3904,-3.5616
Y2BeSi4Ir3,37.3384,33.4079,-3.9304
NdY2(TlS2)3,54.73,48.6616,-6.0685
RbTc,15.1082,12.6964,-2.4118
MoF,0.0,0.0,0.0
YNb3Si,103.1738,84.3612,-18.8126
Bi2SbSe2,46.531,41.1216,-5.4094
RuAu,14.7488,23.5691,8.8203
Rb2SrTc,26.4658,22.9141,-3.5517
VPb2I,61.099,54.9833,-6.1157
RbSr3Tc,27.5186,24.853,-2.6656
Zn2RuPt,26.2641,22.8578,-3.4063
MoRu2Pb,26.9566,28.5679,1.6113
Zr2Cr2Mo,36.8345,31.3834,-5.4511
Rb2MnVCl6,19.7462,16.4395,-3.3067
NaDy2ScTe4,31.3595,29.4907,-1.8687
LaFeO2,34.8523,30.9918,-3.8605
YTmSeO2,34.2359,27.5537,-6.6822
ScTeS2N,40.1804,34.3363,-5.8441
RuPbBr2,35.6983,30.687,-5.0113
Mo2PdBr,19.3183,17.9175,-1.4007
GeMo2BrF,19.9329,19.2133,-0.7195
Sr6In2Co,13.9824,15.1123,1.13
Cs(GaSb)2,26.0041,22.7175,-3.2866
Mo2RuPb,28.4719,28.4942,0.0223
HfZrOs2,71.733,62.7916,-8.9414
Sc2SbAs,29.7142,23.6051,-6.1091
Ce2Pm(TmS2)3,40.2841,33.5168,-6.7673
Mn2AlRh,62.3175,50.327,-11.9905
NdSbPt,51.919,40.7161,-11.2029
CaAg,18.0355,16.0893,-1.9462
LaMo2I,27.2338,24.3246,-2.9092
LiAg3Pb,29.8596,26.4367,-3.4229
NbBF2,39.8061,33.9724,-5.8337
LiSi2PtO6,10.2956,6.4446,-3.8509
YbIn2Ru,18.0926,20.9377,2.8451
Sc2AlRe,35.7916,30.5975,-5.1941
Ba(AlAu)2,23.1735,22.6547,-0.5187
NaScMn2,53.966,46.5397,-7.4263
AlGeRh3,40.1813,29.1797,-11.0017
LiTi2Sb,8.6663,10.9782,2.3118
Y2ErSc7,9.8542,11.2734,1.4192
LiDy(SiO3)2,2.1883,2.3989,0.2105
CaMn3Pb,72.7198,60.8438,-11.876
Cs3HfRh,54.4849,42.471,-12.0139
TlSbTe2S,48.4564,41.3683,-7.0881
CuAgP2N,27.7551,21.1679,-6.5872
Re(BTe)2,26.368,26.8019,0.4339
Pm2SbF,24.4808,24.125,-0.3559
Y2ErUO8,20.5864,21.0038,0.4175
Nd3Tl3Ge2Rh,32.1288,32.375,0.2462
KH4F5,0.0,0.103,0.103
CsSrGe3,14.4898,14.8846,0.3948
CaReTc,46.5415,44.7299,-1.8116
Zr2CrMo,55.417,46.9337,-8.4833
Sr3TeRu,20.1034,20.2204,0.117
BaAl5Au2,17.9017,17.495,-0.4066
Cd2Ge2Rh3,28.7854,23.6226,-5.1628
Sr2Tl3Cd,32.2308,32.4688,0.238
Ge2PtRhAu,41.555,33.0426,-8.5124
LiAl4V,21.0193,17.6755,-3.3438
Tl3BiS4,54.0094,46.3968,-7.6126
LaBe2Mo,21.2571,15.9457,-5.3114
Tl3RuS,46.1593,42.9686,-3.1907
Tc,0.0,62.4115,62.4115
SmCo4Ir,18.6063,19.8688,1.2626
CaCo2Os,21.8947,20.4732,-1.4215
CrRe2Te,33.3541,34.9054,1.5513
MnSi3Ru,35.29,25.6975,-9.5925
Sm5Ho5Er,27.2126,28.9116,1.699
RuBrF2,16.4349,13.9805,-2.4544
CaFePb2,43.1415,39.6547,-3.4868
Pm2PuInN4,17.1736,19.6555,2.4819
CaTb2(TlS2)3,44.6188,37.5271,-7.0917
ScGeSeS,35.5989,30.2769,-5.3221
Ti3SbI,17.3649,16.6327,-0.7321
La6NdAg,46.0522,31.6718,-14.3804
RuAuC2,50.4893,42.2095,-8.2798
Cr2ReTe,25.4997,25.1448,-0.3549
YAuS2,36.7528,32.1136,-4.6393
Tl3Cu2WS6,45.2287,37.9684,-7.2602
RbGaN2,6.755,6.7531,-0.0019
LaBeMo2,26.2393,19.6905,-6.5488
K2Rb2Bi,14.4418,13.8602,-0.5816
Sr2BiAs2,23.4135,19.4644,-3.9491
LaBeMo2,26.137,19.6905,-6.4465
AlCd2GeTe,27.3588,24.2996,-3.0592
HfGeIrRh,60.772,49.5847,-11.1873
Ni2P5,3.7844,4.2668,0.4824
Co2Pt2Pb,50.7413,38.5974,-12.1439
CaDyEr,20.6665,23.354,2.6875
YEr3Sc7,12.7862,14.5595,1.7733
Be2Ru,-0.0,6.0237,6.0237
LiHfNi2,38.9442,30.3552,-8.589
Ta3PdN,32.7379,26.7929,-5.945
Y8ErSc2,13.839,15.0631,1.2241
CaFeTc2,63.5057,52.299,-11.2067
Li(Co2Se)2,18.429,16.078,-2.351
Tm6Sn3C2,32.889,30.548,-2.341
LaGdO4,21.6985,22.8044,1.1059
TbHfTi,51.6299,42.3788,-9.2511
CuSi2As3,24.8083,21.7702,-3.0382
Sc2CdTe2,20.551,19.3469,-1.2041
NiO8,2.85,3.5919,0.742
CuSi2As,23.4072,18.8807,-4.5266
PrThIr,34.4564,38.3605,3.9041
PrTmPd2,16.4681,18.0311,1.563
Sr(LiSi)2,18.3917,13.5753,-4.8164
Cd(InTe2)2,32.1055,31.2575,-0.848
CsInTe3O8,16.1262,13.8618,-2.2644
RePdPb2,41.4024,43.9881,2.5857
SbTe2MoBr,40.6719,35.648,-5.0239
TbTm2(PuS2)3,51.8433,44.9567,-6.8866
YEr2Sc,13.9894,18.4111,4.4216
TbTm2(PuS2)3,51.8429,44.9567,-6.8862
InReTe,34.4336,35.4113,0.9777
Cd3Au8,39.6222,40.6319,1.0098
Cs(BaSn)2,9.8545,12.3644,2.5099
Zr2TlTe,72.0863,61.4793,-10.607
CuAsRh2,28.5852,22.8367,-5.7484
Zr2TlTe,72.1463,61.4793,-10.667
Na2TaCrO6,11.322,8.123,-3.199
TlZn2GaCl6,6.0559,6.8128,0.757
Cs2SCl,26.2642,22.9959,-3.2683
AlPRh2F,35.726,26.3114,-9.4145
Ni3PdRh,18.6148,16.7121,-1.9027
Li2YPd,16.6609,14.9551,-1.7058
SrOsW3,93.6556,72.9877,-20.668
ZrTl2Te,60.4066,56.0395,-4.3671
Cd2WI,23.1036,25.3569,2.2533
Y2PbC,36.9636,35.5256,-1.438
HfRh3F,60.1054,42.2963,-17.8091
HfRhF3,42.3751,29.3902,-12.985
Rb3CaI,6.8043,6.6871,-0.1172
YErIn3,17.944,19.6291,1.6851
Sr3(GeAu)2,21.5782,22.8554,1.2772
PrSmC,26.8064,22.7996,-4.0068
SbRu3Pb,30.5203,30.0249,-0.4954
Fe2MoPb,23.2276,20.1373,-3.0902
Sc2TiTe,16.4134,17.8311,1.4177
SrTcOs,27.3435,28.4559,1.1124
Y3Er7In,25.1121,25.456,0.344
Sn2Ge2Au3,28.8101,30.1292,1.319
Sn2Ge2Ir3,26.9967,29.0625,2.0657
Pm3Pr8,3.2921,5.1498,1.8577
BeMo2I,18.1335,22.4395,4.306
YEr7In2,26.9663,27.8514,0.8851
Cs2PuZnCl6,13.7516,15.1426,1.391
Y2Er3Sc7,12.7473,15.6788,2.9315
NaSmPa2N5,11.5432,15.682,4.1389
CrRhF2,17.4471,12.6204,-4.8266
CaRh2W,35.893,31.2523,-4.6407
Ce3Hg2Au,19.8476,21.6391,1.7915
Zr4MnS8,71.4351,53.9185,-17.5165
Li2SnI,10.7767,12.0724,1.2957
La(ZnSb)2,27.4084,21.2937,-6.1147
ZrCu3Hg,24.8396,20.6956,-4.1439
CaOsPb2W,91.6604,75.8798,-15.7806
Al2CuSb,12.2351,11.3527,-0.8824
ScBe2S,20.149,21.1617,1.0127
Ca2TiHg2,0.1573,2.1313,1.974
In2Ge2P,12.8864,14.3011,1.4147
PmNdCu17,8.5353,9.7251,1.1898
Y4Er5Sc,20.952,23.0632,2.1112
Rb3(LiS)2,9.9049,5.4571,-4.4478
CoTe6Os,37.5477,35.9683,-1.5795
CaRe2Rh,34.0161,32.6739,-1.3422
Li5(YSn2)2,17.7792,14.6571,-3.1221
MnBe2Tl,38.2336,34.8615,-3.3721
Rb2PuZnCl6,9.2914,10.3568,1.0654
HfGeRu,55.9263,45.2306,-10.6956
ScCdIn4,16.626,16.0175,-0.6086
TmInRh4,40.8055,32.3955,-8.41
BeAlIr2,33.5392,32.6201,-0.9191
TeBr2,21.7691,22.231,0.4619
Al3AgRh,18.6219,15.1477,-3.4741
Pr12AlIn6,3.8739,4.1406,0.2667
AlCu2Pb,19.7323,19.1054,-0.6269
La4Ho11Er9,32.6738,30.8972,-1.7766
Cs2ReWI6,26.416,27.052,0.636
AlAg2Rh,28.5011,22.8037,-5.6974
AlAgRh2,32.7823,27.3245,-5.4578
Al2CrRh,10.5019,10.5071,0.0052
CsZr,55.1829,41.6976,-13.4853
Li2AcCu2,15.7075,17.4288,1.7213
La4Pm11Er9,31.0417,29.6017,-1.44
YEr2(PuSe2)3,46.5052,43.7487,-2.7565
CaTb2YRh4,35.2967,28.4477,-6.849
Rb2Se2I,20.8869,17.998,-2.889
Cs4SmU3O12,14.353,16.1141,1.7611
AlCu5Sb,12.8931,11.5791,-1.314
ZrNi2GeO6,13.1852,11.6828,-1.5024
Rb2Se2I,21.3035,17.998,-3.3056
Zr2SbSe,65.7242,52.4211,-13.3031
Dy2Y2Er5,25.4945,28.9736,3.4791
Li2CuGe2,5.079,6.7262,1.6472
Zr5IrOs4,69.7574,61.9248,-7.8326
ScCS2Cl,51.0632,38.7099,-12.3534
Dy2Y2Er5,25.4753,28.9736,3.4983
AlCuPb2,30.1464,30.5132,0.3668
Pr3(NdNi)2,15.0983,12.7582,-2.3401
CaPm2YAg4,26.4158,23.5079,-2.9079
La2Bi2Ru,39.5495,34.6496,-4.9
RbLi3Ru,23.7604,20.3613,-3.3991
AgAsRh,30.1443,24.4837,-5.6606
La6CeYEr2,40.9723,30.5752,-10.3971
SiHg3Au,12.9316,11.7249,-1.2066
Tl2CrAu,39.8323,40.285,0.4526
NaCaCu2Ni,13.4695,10.518,-2.9515
AgRhPb4,44.2797,41.9999,-2.2799
YNiSn2,47.8358,42.7706,-5.0652
TiGeIr,3.7249,12.7335,9.0086
Tl3CrAu,42.2896,42.5904,0.3008
Tl2CrAu,39.755,40.285,0.53
Ge3(SeI)2,24.0758,22.2462,-1.8296
BaCa2Se,34.6482,29.145,-5.5033
BaSrPt2,47.6315,33.719,-13.9125
AcHgGeAu,29.7827,31.7889,2.0062
Li2Ni5B2Pt,6.5382,7.0154,0.4771
AgAsRh2,34.922,28.1253,-6.7967
Ir3AuN,36.4348,38.4748,2.04
SrCdMo,7.2003,8.6604,1.4601
Ir3AuN,39.356,38.4748,-0.8812
IrAu3N,39.6119,40.0963,0.4844
Al3CdAu,15.3295,16.3315,1.002
Cu2PAu,20.9171,20.9036,-0.0135
Sr(SnGe)2,14.7036,15.9595,1.256
Ta6Bi2Au,42.335,45.8113,3.4762
SrCaLa2Cr,34.0228,23.7494,-10.2734
UF2,26.5525,28.7858,2.2333
BaSn3Os,20.5608,22.1713,1.6105
KCe5S8,40.2948,31.5954,-8.6994
Te3Se,40.791,38.5092,-2.2818
Sc2ZnCd,8.9324,10.8075,1.8751
La2Pr6Nd3Al,12.7656,10.8422,-1.9235
BaSn2Os,15.1998,17.6326,2.4328
YErInPt,38.485,33.6913,-4.7937
Tb3CeS4,39.4629,36.5212,-2.9417
ScZn3Cd,9.9093,10.7707,0.8614
YAl3ZnNi,25.799,24.3128,-1.4862
Bi2PbAu,52.3425,54.0454,1.7029
BaHg4Rh,5.7228,4.35,-1.3728
YErPt,43.4811,35.4995,-7.9815
NaMgTa,17.0989,19.556,2.4571
VPS2O,57.6606,42.4178,-15.2428
La2Nd3Dy2,33.1655,30.3002,-2.8652
Sc3TeS,11.8247,11.518,-0.3067
Y3(ErPt)2,39.1172,31.7321,-7.3851
NaMgTa,16.8639,19.556,2.692
Y3(ErAu)4,31.0688,32.4027,1.3339
K3Cd5Ag2,18.0571,16.7432,-1.314
FePb2Se,41.1183,38.0218,-3.0966
CdPtBr,41.596,32.398,-9.198
YInPb3,39.0527,39.8587,0.806
BeGeP2S,16.3773,16.409,0.0317
CuSb4Cl,32.6483,25.1938,-7.4545
CsBa3Hg,5.4313,5.6621,0.2308
YEr2Au,29.6673,32.6251,2.9579
BiPb3Au8,49.1611,50.2872,1.1261
ReTe2Rh,43.8416,39.5243,-4.3174
Sm2Si4Ir3Os,31.4116,27.7776,-3.6339
Y2Er3Au2,29.5372,31.3226,1.7854
SrLuSn,22.2887,24.356,2.0673
Li2Ga2Tc,21.9502,20.8636,-1.0866
CaMoPd,11.8293,10.4259,-1.4034
ThCoSi,20.9411,25.9407,4.9996
DyAl(PO4)2,14.075,11.3453,-2.7297
La2Pr3Os2,24.548,21.9244,-2.6236
CdPt2Br,53.3274,39.3108,-14.0165
FePb2Se,41.2083,38.0218,-3.1865
YErAu2,33.5681,35.8182,2.2501
YEr2Pt3,48.7506,37.4102,-11.3404
La2Tb2Pr3,20.3246,17.3888,-2.9358
Y2ErAu6,37.0799,39.0375,1.9576
Dy5(YEr)2,24.8345,27.6624,2.8279
Tl3SiGe,35.9466,34.981,-0.9656
RbBeSb,15.3984,12.9114,-2.4869
LaThAg,49.7589,43.5856,-6.1733
Tc2TeMo,63.5755,55.5763,-7.9992
Tl(SiGe)2,20.0994,18.1683,-1.9311
TiBeRh2,33.2463,25.1578,-8.0885
Dy2Y5Er2,20.3261,23.584,3.2579
Sb2AsF,27.0914,22.4347,-4.6567
TbYEr2Th,28.1726,31.2764,3.1038
LaTh2Ag,53.8862,51.1265,-2.7597
Mg3BiH,14.6977,14.2423,-0.4553
Pm2DySb2,27.1758,27.0721,-0.1037
La2ThAg,50.2191,41.975,-8.2441
LaSm3(YEr3)2,27.5708,27.4886,-0.0822
K2OsPb,30.6109,31.045,0.4341
AlIrW2,30.7256,35.6464,4.9207
Pr(AlAs)2,19.2451,14.5588,-4.6863
LiHfTaW,54.9922,48.3567,-6.6355
La2ThAg,50.3737,41.975,-8.3987
Sb3Cl,34.7774,27.4863,-7.2911
FePt2Se,57.4951,40.854,-16.6411
Pr3YErTm,6.5161,8.2482,1.7321
LiSeI2,23.7374,22.0039,-1.7335
Mg14CdFe,3.4991,4.5095,1.0104
YbSi2Ru,16.6888,13.7662,-2.9226
CsBi2I,35.9237,37.6356,1.712
AlCuSb4,32.8783,25.4548,-7.4235
YHo2ErIn4,23.1523,23.4266,0.2743
Cr2MoRu2,4.8939,7.8503,2.9563
Hg2GeRhAu,21.9115,19.3409,-2.5705
CuPb2,33.827,37.8238,3.9969
Pr6Y3ErTm2,10.1568,10.5757,0.4188
Sb2Pb,47.5774,41.6478,-5.9295
PaPb,60.2674,64.9295,4.6621
Li2Y(ZnHg)2,11.1736,9.8376,-1.336
ScGe3Te,25.3498,20.9811,-4.3686
Li2Ge2Ir,7.4663,10.5622,3.0959
CuPb,7.1147,12.8995,5.7848
Mn4RuF2,62.5953,50.2434,-12.3519
AlSbPb2,38.4678,37.8461,-0.6218
TiMnCrGa2,36.3164,31.1191,-5.1973
Tl(PbBr)2,44.5775,39.3461,-5.2314
Ba2SrBr,7.9674,8.3566,0.3892
BaSnRu,5.6908,6.7372,1.0464
Cr2TeIr,27.3057,25.7155,-1.5901
Ti2TlGa2,10.5126,13.9061,3.3935
Cr2ReIr,26.6488,27.8371,1.1883
Rb2CaSnCl6,4.9684,4.6275,-0.341
TlIrI2,35.9139,36.7701,0.8562
CrCoIr2,26.5508,28.1943,1.6435
TaCr2Ir,51.2567,43.0607,-8.1961
SrGaF3,9.3486,8.8073,-0.5413
Be2PdI,23.4337,24.3293,0.8956
CrIrOs,33.6321,36.0928,2.4608
Cs2SmPu3O12,14.3801,18.04,3.6599
Na3CaF6,9.5653,8.3738,-1.1916
Cr2TcIr,39.67,36.2901,-3.3799
TaNi2Au,24.1278,27.9347,3.8069
CrAgIr2,33.2096,34.4979,1.2883
Ca2PbF,12.4299,14.6663,2.2364
Pr2SiP,17.2236,15.5103,-1.7133
CrIr2Br,41.121,40.8719,-0.2491
CrAsIr5,34.6504,36.5044,1.854
TaCrIr,63.4605,52.1507,-11.3098
CrTc2Ir,60.728,56.6854,-4.0426
Cr3ReIr,24.7076,23.6884,-1.0192
Cr(InIr)2,21.8561,23.4743,1.6182
CrAsIr,22.9119,23.0635,0.1516
Cr4AgIr,19.3825,18.3066,-1.0758
ScSBr2,30.2806,30.0968,-0.1838
CrIr3Br,42.7476,42.1556,-0.592
NaTiPtF2,30.9612,22.3117,-8.6495
Li3Br4,22.1082,19.1934,-2.9148
Pr2SmYEr,8.729,12.1028,3.3738
PaCrIr2,41.4763,43.4666,1.9903
CrHgIr2,25.3524,26.5857,1.2333
NaCr3Ir,21.0797,19.3582,-1.7215
ScBeS3,42.909,34.3824,-8.5266
CrIrPt2,58.8338,44.7816,-14.0522
Sr2CrAg2,17.6985,14.8811,-2.8174
ReAgTe,39.3678,37.831,-1.5368