Formula,E_hull_DFT (eV/atom),E_hull_ML (eV/atom),Delta (ML - DFT)
LiY2MoO6,30.7048,27.464,-3.2408
Ac2AlGa3Pt4,50.5428,40.545,-9.9979
TaCrGe2,34.4444,26.4,-8.0444
Ga2Cu2Te,13.9222,12.6127,-1.3096
Sb2Rh,46.2663,35.1679,-11.0984
Sr(TmGa3)2,13.3977,15.1716,1.7739
KRbTaSe4,28.9711,25.5472,-3.4238
AcTb2Pt,51.2369,47.086,-4.1509
Pu(ThGa3)2,27.7645,29.8242,2.0597
BaLiV2O6,30.9783,26.3176,-4.6607
MnSiPt2,73.129,52.9114,-20.2176
FeTe2Au,32.9713,33.1942,0.2229
CaMoOs2,29.8867,30.5624,0.6757
SrCaGa,11.0867,10.4226,-0.6641
Np4Ge12Pt,28.1113,27.6689,-0.4424
LaTaW,43.0534,40.9379,-2.1155
Sr2TiNi,11.3975,11.8311,0.4336
P3Ir2Au,32.5836,29.3627,-3.2209
Ca3MoOs,18.2581,16.7537,-1.5044
La2TaW,45.3247,39.1849,-6.1398
LiPu2NpS6,54.4765,45.4084,-9.068
SiTe2Au,36.936,34.1244,-2.8116
LiTb(GeS3)2,32.8472,24.4697,-8.3775
LiGe2SeS6,36.4443,26.1731,-10.2712
LiPu(NpS3)2,54.3688,45.4492,-8.9196
SiTeAu2,37.9781,38.1259,0.1477
ErMn2O5,49.5607,45.6105,-3.9503
SiTe2Au,33.1345,34.1244,0.9899
ZrAs,5.021,8.9459,3.9249
Ac2BeAl3Pt4,53.1934,41.3629,-11.8305
LaNbAg2,64.2955,50.4316,-13.8639
Ac(SiPt)3,46.8156,33.1718,-13.6438
Pu2ThGa6,28.5409,30.642,2.1011
Tm2Se2I,34.5186,31.8534,-2.6653
CsRbCu3,10.466,10.485,0.019
Ac(TmGa3)2,19.036,20.8468,1.8108
InBiO3,2.9647,8.0398,5.0751
BeIr2Pb,29.4005,33.8647,4.4642
LiTb(SiS3)2,35.5488,25.3739,-10.1749
Na2LiOs2,22.9366,24.8033,1.8667
Cd2PbAu,34.5726,35.5612,0.9886
LiTb2PaS6,44.7685,35.8847,-8.8838
Tm(ThGa3)2,23.0788,25.2474,2.1686
GaFeCu3,22.9705,18.2491,-4.7214
LiMnPd,33.7422,29.2329,-4.5093
Pu(UGa3)2,28.6329,30.706,2.0732
InBiO2,10.2143,12.6358,2.4215
AsAu2,31.4842,33.9372,2.453
TlCd2Au,34.1459,35.2006,1.0547
PRuBr2,16.3511,15.1819,-1.1693
LiPm2ZnGa6,7.1096,9.353,2.2434
LiSc2Al,6.2965,7.2547,0.9582
Na3LiRu,19.0274,15.8994,-3.1279
BaCd2Au,21.1794,22.3551,1.1757
YbTlCu,24.6874,28.4838,3.7963
Ta2Ti2Mo,10.0665,15.0154,4.9489
AsP2Au,25.4013,23.7042,-1.6971
LiSc2Al,6.2042,7.2547,1.0505
NaZr2Sb,61.403,52.1367,-9.2663
AcTbPtBr,47.5006,42.335,-5.1655
LiU(AgI3)2,22.9906,21.7106,-1.2799
Ac4In12Au,31.5533,32.5759,1.0226
Nd4In12Pt,24.5786,24.0957,-0.4829
Dy(ZrGa3)2,29.9749,27.5819,-2.3931
LiNp(InBr3)2,16.5,17.8951,1.3951
RbTaSe2Br,28.532,25.1144,-3.4177
CaSc2Ti,12.2971,9.1458,-3.1513
NaInTe2,28.4461,27.2212,-1.225
ThZnIn,31.025,33.5926,2.5675
Ac6P2Ir3Br,48.0267,47.0192,-1.0075
Ac2RuPt,61.8855,53.7814,-8.1041
Ge3PtW,32.4667,27.7581,-4.7087
CsAlC,17.1207,16.2613,-0.8594
Hg2PdSe2,19.9757,18.0613,-1.9144
Sn2PdSe2,28.832,24.7483,-4.0838
Ge2AsPb2,22.906,24.1745,1.2684
Li2(TbIn2)3,18.7108,19.2162,0.5054
AgRuRh3,49.9713,36.0624,-13.909
TbHfInAg,55.2453,44.4406,-10.8047
Gd2CoGe,25.1421,24.6954,-0.4467
LaBe2Cu,17.7162,12.6691,-5.0472
Sb(AuI4)2,29.4753,28.9328,-0.5425
LiIn2SnCl6,9.2676,9.3749,0.1073
Cd6GaSn2,18.3872,19.2579,0.8708
NaTl(HgBr3)2,11.5312,11.557,0.0258
Rb(H3Au)2,7.7949,9.3729,1.578
BaWN3,1.8419,4.9578,3.116
NaEr(TlBr3)2,17.602,19.2236,1.6216
NaHo(TlBr3)2,17.492,19.118,1.626
CsLa2Al,32.9266,25.7921,-7.1345
HfGa6Tc,35.7039,29.2571,-6.4468
HfGaTc,81.1894,46.3301,-34.8593
TaPOs,19.8859,25.1057,5.2198
VO2,20.7407,17.1752,-3.5655
La2In3Ni2,24.6285,21.3098,-3.3186
Cs2Tl6Ga,40.1702,40.9151,0.7449
TaP2Os,23.0061,25.7671,2.761
BaCd2Re,49.6787,38.8184,-10.8603
ZrAlGa3,25.9898,23.0893,-2.9004
CaTaOs2,31.9393,36.0192,4.08
In(Bi3Pt)4,60.6202,54.7118,-5.9084
DyPb3,46.1665,48.379,2.2126
Sm3Pd2Au7,36.2492,37.9973,1.7482
Zr2Al5Ga,21.723,20.0771,-1.646
Cs2MgAgCl6,6.2035,7.0938,0.8904
CaTa2Os,30.372,34.977,4.605
MnSiSb2,51.2417,40.1083,-11.1334
Y3Ru,19.0877,17.0721,-2.0156
TeOsC2,45.5198,38.9214,-6.5984
Pd2CBr,28.2237,24.3426,-3.8811
MgCd(InHg3)2,5.0688,5.6395,0.5707
HfHg2C,47.4429,35.1234,-12.3195
CdRh2Cl,30.7366,23.8145,-6.9221
BaCd2Re,49.4792,38.8184,-10.6608
YRu,16.5807,2.1988,-14.3819
HfPt2Rh,84.5918,60.0496,-24.5421
Li2AcI4,18.0699,20.0633,1.9934
Ga(AuI3)2,24.294,24.9177,0.6237
CaAl2Se,35.8581,28.7097,-7.1485
Tb2PmScP4,21.6121,20.6969,-0.9152
HgIBr,9.5399,11.5106,1.9706
CaAc2(AsRh4)3,41.6623,31.845,-9.8173
CaAlSe3,46.468,36.5788,-9.8892
C2Br2F,29.4832,20.9631,-8.5201
Ce4Sm2C,30.1988,29.3236,-0.8752
Ba2SbAu2,23.5117,23.3547,-0.157
VZnC2,58.7016,44.1712,-14.5304
CaAlSe2,46.1833,33.924,-12.2593
Ti2CoPt,51.338,40.0542,-11.2837
Rb2LaC,26.5029,19.4289,-7.074
Sn2Se2I,31.7955,28.2938,-3.5017
Ac2GaAs3Ir4,33.4404,35.6587,2.2184
NaTl2PbCl6,16.1974,17.0028,0.8054
SrYRu2,19.8165,18.2076,-1.6089
In12Sn4Bi,22.2673,23.0134,0.7461
PRhC2,37.4554,25.0803,-12.3751
Cr2ReGe2,18.8066,16.0519,-2.7547
PRhC2,45.0259,25.0803,-19.9456
ReSnAs2,20.7749,23.0753,2.3004
CoPbBr,34.5473,30.2571,-4.2902
HfTlTe2,53.9577,45.0584,-8.8994
Ru3WO,44.61,31.0394,-13.5706
HfTl3Te,68.2332,59.4008,-8.8324
Hf3TaCd,98.4597,72.7704,-25.6893
Ac2Be3GaPt4,48.7391,38.9208,-9.8183
LaBe3,8.8963,8.6127,-0.2836
Hf8Sn2Te,111.8995,80.0912,-31.8083
SrY2Ru,21.4675,17.2215,-4.246
MnCo2IrSe6,39.0053,31.7392,-7.266
VCo3(CuH4)2,20.5635,16.0283,-4.5351
Sr2YRu,18.8585,16.3935,-2.465
LiLuAl4,9.3606,10.2111,0.8505
CeZnCd2,17.6495,18.9953,1.3458
Rb2PBr2,8.1283,6.0858,-2.0424
Fe2Si2Pb,14.5937,11.6264,-2.9674
SrY2Ru,21.0265,17.2215,-3.805
MnIn2PbBr6,24.7278,22.0499,-2.6778
AcTbPt4,73.8263,57.2218,-16.6046
NaTl(FeBr3)2,13.223,13.2039,-0.0191
RbNa(FeBr3)2,8.0986,8.0966,-0.002
SrY2Ru,21.1154,17.2215,-3.8939
As2OsBr,18.6462,21.0498,2.4036
NaGa(SnSe3)2,32.1341,26.8099,-5.3242
Cd2AgC,31.2648,25.4355,-5.8293
As2OsBr,18.4346,21.0498,2.6152
TaTcRu,49.1079,47.7515,-1.3564
NaCr(InBr3)2,15.3787,15.0999,-0.2788
Rb2NaCrBr6,11.2217,11.005,-0.2166
AsRu2Pt,35.7175,28.9197,-6.7978
Ba2PaMnSe6,38.4492,32.8524,-5.5969
Y2Ga4NiIr3,41.1918,39.0146,-2.1772
Tl2ZnRe,49.3295,42.3097,-7.0199
Ba2NpMnSe6,38.6368,32.6878,-5.949
Ac2NpMnSe6,50.795,44.9341,-5.861
PaMn(PN3)2,21.1541,17.9096,-3.2445
UMn(AgSe3)2,51.5803,42.3278,-9.2525
AlInSe,23.4184,21.6306,-1.7878
Tb2TmMnSe6,45.8342,38.9582,-6.8759
Tl3ZnRe,49.662,43.9918,-5.6702
Ac2TmMnSe6,47.4037,41.5458,-5.8579
ZnReGe3,27.3714,23.1063,-4.265
SnPBr,7.9715,9.8099,1.8384
AlSi2Sb,30.0192,22.3183,-7.7009
Li(ErAl3)4,9.3542,10.701,1.3468
Dy2SeBr2,23.507,22.9641,-0.5429
ZrAgBr2,33.9506,31.92,-2.0306
SrMn(AgI3)2,27.3556,24.9002,-2.4555
Ho2MnGePt6,69.5008,51.9385,-17.5623
Pa2AlCrN6,8.1064,11.6335,3.527
NiPb3,41.1409,42.8837,1.7427
Dy2TaReN6,28.6369,29.291,0.6541
Ca3TaW,20.017,20.9961,0.9792
Sr2YRu,14.7368,16.3935,1.6567
Sr2YRu,18.9245,16.3935,-2.531
TlGaSn3,25.0344,25.6872,0.6528
Sr2YRu,19.4439,16.3935,-3.0504
AlInSe2,25.1439,23.6432,-1.5007
Nb2CrC,103.9323,86.9765,-16.9558
Pa2MnWN6,26.9072,27.5908,0.6836
Tl2NiAu,36.1196,38.2368,2.1172
NaSr2IrO5,22.0939,18.9833,-3.1105
SmScPbAu,31.9349,34.6041,2.6692
TbAgSb,33.8587,29.3997,-4.459
SmYPbAu,34.0633,36.8478,2.7845
RbBaPa2O7,10.0535,11.3572,1.3037
TbNd4In15,20.6772,21.9674,1.2902
Li(NpGa3)4,22.252,23.7118,1.4598
La2PrGd,32.0745,25.5611,-6.5134
MnTl2Si,54.5585,47.1685,-7.39
TcPPd3,30.3081,28.1467,-2.1614
SbOsRh2,40.0793,33.9289,-6.1504
In3OsC4,43.7694,34.0608,-9.7087
AcPt4F,71.0323,53.0547,-17.9776
P2IrBr,22.9324,20.4951,-2.4373
VAgSb2,58.3527,45.5292,-12.8235
Ac2Pm3Pt2,53.9358,47.2695,-6.6663
SrCrOs2,29.5256,29.5692,0.0436
VZn3Cd,35.157,29.5107,-5.6463
TaPPb2,39.084,39.4553,0.3714
Sb(PdPt)2,47.4497,36.2648,-11.1849
SmYZrIn,40.2861,37.2631,-3.023
NaAsPbSe2,48.7795,43.3803,-5.3992
FeTeOs2,41.6699,38.9414,-2.7284
BaLiPmIn,13.1009,14.1395,1.0386
YCuRu2,26.2276,23.9049,-2.3227
Ac3AsPt,58.1469,53.706,-4.4409
Ac2TePt,64.0371,58.0595,-5.9776
MnTcNi2Ag,68.7274,56.7703,-11.9571
YCuRu2,26.2903,23.9049,-2.3855
Dy8SbC4,38.6964,32.5744,-6.122
Ba6IrAu2N,9.5993,11.7423,2.143
NaP2WN6,28.8245,23.5303,-5.2942
PtRhAu2,58.5172,49.3875,-9.1297
CaWN3,17.4872,17.6591,0.1719
In2GaBi,25.7531,27.2042,1.4511
Zn2CrSe,19.7975,16.5194,-3.278
TaAg2Sb,36.4194,31.5885,-4.8309
VNiGe2,36.6453,29.1896,-7.4557
Ca2NdWO6,17.4264,18.8144,1.388
YRu4,19.3718,19.3809,0.0091
YGaIr2,19.98,24.8189,4.8389
Ba6AgHg2N,0.59,0.9452,0.3552
Y4GaIr2,21.9524,23.6141,1.6616
InRh2Cl,30.6512,25.4087,-5.2425
ZnIrBr2,22.8448,19.7634,-3.0814
LiTaOs2,30.2501,34.3362,4.0861
Y5Ru,17.1495,17.1195,-0.03
Ag2Pt2Rh,53.8494,38.0283,-15.8211
VNi2Ge,41.9077,33.6953,-8.2124
Ir2PtPb4,55.7134,52.9836,-2.7298
Zn2Ge2Sb,12.9755,12.5433,-0.4322
Sb3OsRh,46.2468,37.2507,-8.996
Cs2PCl6O,10.5459,9.9939,-0.5519
Be2WSe,27.8667,24.8544,-3.0123
Zr2CuS,57.7917,48.425,-9.3667
Be2WSe,27.8244,24.8544,-2.9699
Be2WSe,28.234,24.8544,-3.3796
LaOs3,35.6469,36.3042,0.6573
Be2WSe,28.0403,24.8544,-3.1858
BeWSe2,37.4371,32.4042,-5.0329
BeW2Se,34.3391,33.7971,-0.542
IrRuPb,43.8844,41.2819,-2.6024
Er2SeI2,29.1342,28.5269,-0.6074
NaNp(ReN3)2,59.0059,52.6205,-6.3854
Sm4IrAuBr2,32.7342,29.5955,-3.1387
IrRu2Pb,37.0642,36.2659,-0.7983
BeW2Se,34.6596,33.7971,-0.8626
CuAu,12.6306,16.633,4.0024
CsSr2Ac,29.0771,30.292,1.2149
LiTh2Al,36.839,38.0736,1.2346
Li2Er2TmPd5,12.0435,15.3594,3.3159
AlRe3Sn,30.3495,33.1155,2.7659
GaFeRu2,28.7897,22.9504,-5.8393
NaZn2Pb,23.2045,22.564,-0.6405
Sm(ErCu)2,14.7187,18.3605,3.6418
Ac2TlInPt6,73.5971,57.6965,-15.9006
TlCu2P,17.707,17.4043,-0.3027
TlPtW2,54.7256,51.0879,-3.6377
NaSmSnAu,28.9133,29.4141,0.5008
TlMoRh2,41.2761,35.8061,-5.47
TbErAlAu,25.9417,28.6577,2.716
Y5Ru,18.1713,17.1195,-1.0518
RbNa2TlBr6,15.9989,15.5485,-0.4504
AlHg2Rh,13.2018,10.1593,-3.0425
Na2SrHgBr6,12.6404,11.7482,-0.8922
Na2InAuCl6,13.0387,13.1064,0.0677
Sr(InW)2,27.3609,25.9085,-1.4524
NbGaN,42.395,39.1043,-3.2907
AlHgRh2,24.8177,18.7386,-6.0791
AcTa(CoO3)2,18.5636,17.1253,-1.4384
TaCo2PbO6,18.9222,16.3374,-2.5848
In2BiP,25.0126,26.2656,1.253
BiP3Pt,31.5832,26.3901,-5.1931
CaAcTbDy,31.0146,33.5212,2.5066
Al2NiPO6,3.6446,4.9351,1.2905
RbBe3Ir,9.3803,10.9239,1.5436
TmV2,96.2648,78.5285,-17.7363
BiRu2W,51.5889,43.8925,-7.6964
CeY2Sc,14.4821,17.5702,3.0881
TaPtRh,58.1044,46.8521,-11.2523
SrV3Te,90.6926,71.6242,-19.0684
Na2CuPbCl6,12.5596,12.1376,-0.422
SmAuI,26.5849,30.5303,3.9454
Ti3AuC,7.1348,3.1818,-3.953
Sm2TlAuO5,9.2788,10.73,1.4512
PtPb,71.2158,58.4914,-12.7244
In3NiBi,25.1651,25.6122,0.447
Li2SmPbAu2,28.2911,29.6775,1.3865
Sm2Pd2Se,25.6307,26.2857,0.6549
Zn3BiW,24.1713,25.3522,1.1808
Yb(GaRu)2,12.7145,15.2066,2.492
TbSmPtAu,46.0685,41.1309,-4.9376
NaCa(InBr3)2,12.6648,12.9122,0.2475
Rb2NaTbBr6,7.0553,8.6773,1.622
Rb2GeOs,12.1907,13.9245,1.7337
NaLa(TlCl3)2,14.6947,14.6897,-0.005
KNa(ZnCl3)2,3.2808,3.427,0.1462
LiSm(YAu2)2,29.5448,31.5713,2.0266
Na2PdAuCl6,13.118,13.127,0.009
Th4ZnSb,46.8599,50.0692,3.2093
Ac2Sm2CoAu2,40.1207,41.6866,1.566
Na2PdPbCl6,13.3708,13.7999,0.4291
Sb2PPb,36.9013,32.6458,-4.2556
Mg(PaRh3)4,49.9236,39.7041,-10.2194
LiSm2Ge4Au3,22.3804,23.9517,1.5713
TbDyYHo,24.1747,27.279,3.1043
AgAsRu2,21.8797,19.6961,-2.1836
TaMo2AsPb,27.6594,29.367,1.7077
Tl2PbSe2,46.2779,44.453,-1.8249
Pa(MnAs3)4,34.1573,29.3815,-4.7758
ReSbIr3,44.5227,44.3659,-0.1568
LiAgAs2,12.8436,11.7563,-1.0873
NaPm(AgCl3)2,12.3531,11.2125,-1.1406
NaAg2PbCl6,12.6597,11.4571,-1.2026
PaMnMoC3,50.8928,41.8092,-9.0836
La2Te2Se,39.7519,32.3662,-7.3857
Na(In3Te4)2,31.8208,30.0336,-1.7873
NaInTe2,28.5901,27.2212,-1.3689
YTcRuW,84.9412,71.3557,-13.5855
LaSmTlAu,43.1602,41.0719,-2.0882
TlPPt2,58.6745,45.7664,-12.9081
Na2InTe2,27.0539,25.138,-1.9159
Rb2Ti2V,27.3825,22.7568,-4.6257
RbTeP2,16.4253,14.355,-2.0704
PaCr2FeO6,13.2161,12.5826,-0.6335
Li3Al,4.0117,3.7918,-0.2199
Er2ZrIr3,38.8514,40.2715,1.4201
SmPaGeAu,36.8483,39.9343,3.0859
ZrPb,69.1502,64.1742,-4.976
PmSn2Sb,27.3009,26.0937,-1.2072
DyY3(HoSe2)4,33.7556,30.427,-3.3286
CaHfSe2,81.2005,60.6568,-20.5437
La4OsI2Br,37.31,29.6661,-7.6439
ScTi3Cr,15.5878,16.0405,0.4527
Sc2TiCr,18.177,18.7785,0.6014
Pr2Nd5Tm,13.3348,16.1986,2.8638
Li2ZrAl,28.4655,23.8324,-4.6331
AcPt2Au,66.4678,55.7843,-10.6835
Ce3(CdAu)4,30.5948,31.7497,1.1549
Na3TcPb,45.0451,38.0666,-6.9786
LiSmTlAu,30.4155,32.64,2.2245
BaRu3N,29.9997,27.9789,-2.0208
AcBiPt,68.6454,61.2984,-7.347
Zr2MnSi,77.6754,62.6637,-15.0117
TePt2,68.8314,52.9991,-15.8323
Ac3PtAu,60.3407,57.5284,-2.8123
TcP2Au,30.7792,34.7267,3.9474
NaMg2TcH8,12.0207,10.283,-1.7377
SmU(TlS2)2,51.5927,45.3057,-6.287
Sm6GaRu2,15.497,18.3257,2.8287
LiSmPtAu,39.775,34.8528,-4.9221
Dy2GaCoO6,5.4643,7.0343,1.57
TlGe3W,25.5802,26.4523,0.8721
CaNd2Te3,28.6372,28.9653,0.3281
K2FeOs,27.4726,22.9045,-4.5681
Na2ZnCd6Hg,16.2532,16.1167,-0.1366
Sc2PaTi,20.775,23.4763,2.7013
YbCuSb,24.2697,24.428,0.1583
Pu2Si2Bi,45.2677,43.9141,-1.3536
TaTlP3,21.3799,21.1563,-0.2236
AgSbPb,42.9923,37.837,-5.1554
Tl2NiI6,27.0425,28.201,1.1585
BaPb3,39.2557,40.5864,1.3307
Y3Os,16.3844,16.9098,0.5254
Sr2HfSnO6,29.7234,24.6923,-5.0311
LiSm2Gd,20.131,22.7208,2.5898
Na2AcUS6,45.5852,37.2258,-8.3594
Re2SbP,52.5879,45.56,-7.0279
Ca(AcSi)2,31.4124,29.8376,-1.5748
Tb2Y6ErTh3,30.3441,32.1755,1.8314
Cd3BiBr,22.9403,24.697,1.7567
Na2SrUS6,40.9821,32.047,-8.9351
NpAg(HgO3)2,15.6791,15.2183,-0.4608
ScCrBr2,24.0761,21.4695,-2.6066
ScCrBr2,18.714,21.4695,2.7555
Pr2PPb,10.6265,13.9674,3.3409
Sr4Ta2O9,-0.0,-0.0,0.0
Sr6Tl2Ga,20.9119,21.833,0.9212
Cd2Bi2Br,29.583,31.019,1.436
AcScPO,72.5803,67.14,-5.4403
Na2Sr6HgPt,19.4239,16.9327,-2.4912
RbYHg2,12.988,9.6461,-3.3418
Tb2Y2ErTh,23.8688,27.0546,3.1858
Zn2Pb2Se,31.0955,30.5614,-0.5341
NaAg2HgBr6,12.8685,11.5435,-1.325
Ag2TeMo,32.8119,27.0789,-5.733
Ac4SmLu,53.1694,54.8514,1.682
Sr2Sb2Pd15,20.4596,20.0624,-0.3972
CePmGd,26.4627,29.0141,2.5514
NaCa(AgBr3)2,15.1528,13.3048,-1.848
Na5NCl2,21.5868,18.3205,-3.2664
AcSmLuTh,47.4423,50.7118,3.2695
ReNi2Rh,44.6623,31.7979,-12.8644
Rb2NaAcBr6,10.8231,12.2076,1.3845
Sr2TiPdO5,10.3062,9.0815,-1.2247
Sr2TiTlO5,2.5589,5.1129,2.554
Pr2Nd4Sm3,18.2883,21.224,2.9357
Y2Co3Ge,34.5177,28.8177,-5.7
BeRe2Ni,33.4247,27.3512,-6.0735
Rb2NaPrBr6,7.3708,7.6897,0.3189
TiTlPb2O5,10.6781,13.98,3.3019
TiVAg2O5,14.2756,13.0102,-1.2654
NaCd(InHg3)2,8.1059,8.0057,-0.1002
SiNiOs2,26.1211,28.3639,2.2428
Y2CuNi,71.1806,60.8131,-10.3676
Zr3Al2Cu3,41.5272,34.3762,-7.151
Sm2TcAu,47.2846,45.4542,-1.8304
Zn2CdBi,20.719,22.577,1.858
InAsW,24.4804,25.85,1.3696
ThZr(SiIr)2,45.8595,43.056,-2.8036
BaSb2Te,32.5697,27.959,-4.6107
InAsW2,27.7909,30.6348,2.8439
InAsW2,28.2105,30.6348,2.4243
Zn2CoCl,11.0744,7.423,-3.6514
Tl2NiW,39.383,39.5057,0.1227
Li(BeRe)2,11.1685,15.9073,4.7389
Zn2GaTe4,27.1607,26.6236,-0.5371
K2NaBiCl6,7.8992,9.0395,1.1403
AcPrPt,43.2856,29.1301,-14.1555
Pm2PrErTl4,34.3117,36.3056,1.9939
Lu2GaAg,26.2585,26.2407,-0.0178
Nd2Y3Ho2,21.0859,23.5061,2.4203
MoAsPbSe2,47.997,43.8419,-4.1551
MnTl2Ge,48.6449,45.8043,-2.8406
TaAs2SeBr,35.2558,33.4061,-1.8497
Tb3PmNdSc,18.4967,20.4936,1.9969
NaPu(TlCl3)2,16.1616,17.6534,1.4918
IrRuPb2,46.0423,44.073,-1.9693
TaGeAs2Se,35.0185,33.2859,-1.7326
PmPr6NdHo2,5.3574,6.3177,0.9603
SmTh2Rh5Au,42.6416,36.8313,-5.8103
NaCd(CuI3)2,16.6708,16.878,0.2073
PmPr6NdDy2,3.0296,5.7333,2.7037
NaCu(AgBr3)2,17.1248,15.2852,-1.8396
TbTmSnAu,30.6199,33.3978,2.7778
NaCu2SbI6,18.9827,18.1409,-0.8418
YVBi2,62.9246,57.536,-5.3886
Sm5(YHo)2,23.2824,26.5521,3.2697
Ta3MnTe,52.265,48.3928,-3.8722
ZnIn2Sb,23.1429,21.4953,-1.6475
ZnIn2Sb,23.1747,21.4953,-1.6794
Zn2InSb2,25.0905,21.7281,-3.3624
MnTlGe3,36.9607,32.3631,-4.5976
NiRu3Br,18.7864,17.839,-0.9474
Y(VBi)2,76.1486,65.8664,-10.2822
LuAlI,17.99,19.2679,1.2779
Pm6Pr2SmTm,14.9846,17.6769,2.6923
MgFeBi2,24.6064,27.4482,2.8417
NaTbAu2,35.8876,35.991,0.1034
In2TcH6,11.0628,10.6068,-0.4559
CdPBr2,11.3558,11.7777,0.4219
CdPC2,32.3273,23.5388,-8.7885
SnGeBi3,39.3124,39.8788,0.5664
HoTmAg4,30.5426,26.5284,-4.0142
Dy(WO3)4,14.0398,14.9906,0.9508
Np4HgO12,16.8739,18.3751,1.5011
Pu4HgO12,15.3363,17.2377,1.9014
CdSiP,17.7675,16.5801,-1.1874
LiNd2UAs4,18.862,21.1256,2.2635
Ga2Co2Pt,18.0621,16.1297,-1.9324
PmPr6Nd2Sm,2.4887,5.1908,2.702
NiOs4Br,32.2734,34.7098,2.4364
Sr2CaRhO6,9.2757,9.6507,0.375
Th2Si2Ge,33.673,33.3731,-0.2998
ZnFe4Se,10.9738,9.6728,-1.3011
NaAcPt2,66.4233,52.6024,-13.8209
NaBi(PbBr4)2,27.0755,24.5993,-2.4763
La2ZrSi,53.948,39.924,-14.024
Li3TaBe,10.8988,10.7993,-0.0996
LiBeSe2,24.6106,19.9218,-4.6889
Be2PSe,8.9724,9.7636,0.7912
NaNCl3,17.1104,15.1513,-1.959
TaCu2Au,26.3819,27.3415,0.9596
Li2BePSe4,27.1825,21.1176,-6.0649
Al2VRh,39.9036,33.3122,-6.5914
Rb2HoTlI6,17.6712,19.7736,2.1024
SiRh3N,32.8041,22.9771,-9.827
Li3ZrBe,21.2617,17.7334,-3.5283
AcThZr2,81.9633,75.2705,-6.6928
CaTcSe,69.856,56.2971,-13.5589
Dy5Er3S,30.9751,31.2789,0.3038
RbNa2HgI6,15.9408,15.5668,-0.3739
UTa4O12,11.6599,13.4023,1.7424
Tb6PrNd2Ho,18.8032,21.5393,2.7361
Na2CuNiBr6,10.6768,10.6443,-0.0325
Mo(WO3)4,17.6035,17.4549,-0.1486
Hf4ZnIn,93.0159,66.2587,-26.7572
Mo(OsO3)4,15.381,15.2849,-0.0962
Mo4WO12,22.1165,19.4772,-2.6393
Pm2PrNd6Er,17.6827,20.3785,2.6959
Tb2GdAg,28.527,28.8938,0.3667
Na6Mg(SeO4)4,6.7621,4.958,-1.8041
La4Y3Ho4,32.8853,29.1223,-3.7631
Nd2Y5Ho2,19.4822,21.2734,1.7912
Rb2NaAsI6,22.2555,20.9942,-1.2613
ZnPbBr2,27.8964,24.1025,-3.7938
Zr3Cu5,40.9619,35.911,-5.0509
BaRhI,20.0732,16.8679,-3.2054
NaAg2IBr6,17.5518,15.8546,-1.6972
Pr5(YHo)2,8.4141,10.2393,1.8252
Sn(POs)2,15.6675,20.3985,4.731
Cs2NaSbI6,21.9227,21.5876,-0.3351
Tm2BiC,37.3606,38.0937,0.7331
Tb3Sm2Y6In,20.0079,20.9561,0.9482
Ho2PaPb,44.0894,46.4547,2.3653
Cd2TePb,33.323,33.3599,0.0369
PaAg2Pb,45.8331,43.7984,-2.0347
Re2GeS,43.3172,36.9837,-6.3335
Dy2Y2Ho3,23.9319,26.6161,2.6841
UInNi,18.2929,24.8802,6.5872
CaGdPdAu,24.0751,26.6573,2.5821
Ba4SrYCu6(PbO4)4,15.0913,13.5264,-1.5649
NaAc,44.7373,43.3898,-1.3475
Be2TeW,21.9944,21.6502,-0.3442
BeGaO3,8.072,9.28,1.208
Zr5CuRh4,68.8199,55.264,-13.5559
SmGa4Au,13.418,15.772,2.354
Hf2HgB,72.3584,52.951,-19.4074
B2PdRu2,2.8436,8.1831,5.3395
BeSbCl2,14.6864,11.8522,-2.8341
RbTi3S5,32.4243,23.6767,-8.7476
Be2SbCl,13.7608,11.6101,-2.1507
SiNiAu2,29.0333,29.0133,-0.0201
Be2SbCl,13.4007,11.6101,-1.7906
SmGa5Au,15.974,17.2734,1.2994
Li4AcTh,22.2775,23.6276,1.3501
LuAl2Ga,11.812,14.3064,2.4944
Ba2InNiPb6,31.6413,32.2464,0.6051
Nd2Sm2Y2Ho,22.2335,25.6051,3.3715
CeGdNi,23.6388,24.2301,0.5914
BaU(AgO3)2,6.5614,5.5068,-1.0546
Rb2Tl2Sn,22.8515,24.4751,1.6236
Ac3Ge2(BiPt2)2,60.9395,52.1357,-8.8038
Pr(ScSe2)2,20.3005,17.7188,-2.5817
BeCr2Br,21.3878,18.671,-2.7168
Ba2CrReO6,5.42,5.7001,0.2801
Y3Ho4,22.1336,25.47,3.3364
Ac2CdSb4Pt3,58.8657,47.0112,-11.8545
BaAc2CrO6,14.2517,15.1399,0.8882
ZnTePt2,52.8303,41.0044,-11.8259
BaTa2Te,29.4018,31.8509,2.4491
LaSi2Pd5,20.7988,18.5693,-2.2295
Co2IrAu,27.0107,31.046,4.0353
LaTi2Sb,20.6013,17.1548,-3.4466
Bi(WO3)4,15.9893,16.8136,0.8242
SiNiMo,35.6772,29.5306,-6.1466
BaNbCoO5,10.9243,11.0693,0.145
Gd2ZnGa,18.7635,21.2072,2.4437
NpTlPb2O5,24.0042,25.6284,1.6241
PaAg(HgO3)2,9.1146,9.7252,0.6105
Ca2IrPd,24.8993,20.3387,-4.5606
MnRuF3,27.9056,23.5444,-4.3611
Ta2SbSe,42.0209,39.117,-2.9039
AcCd2Pt3,56.6983,44.2732,-12.4251
CsBeCu2,14.9549,12.8914,-2.0636
AsRu3Pt,32.6865,27.2386,-5.4479
MgTa3Bi,35.6111,37.3358,1.7247
Tl2FeAu,37.5699,38.8614,1.2915
Ac2CdSn4Pt3,49.1877,41.894,-7.2937
AlTc2Mo,56.7102,46.7376,-9.9727
Ta2InCo,46.0346,38.9683,-7.0663
Ac2Zn3CuPt4,50.9358,40.897,-10.0388
Ac2FeGe4Pt3,42.8524,35.7075,-7.1449
Y3Ho8,24.3833,27.5556,3.1722
Zr2TlAu2,62.5129,58.1985,-4.3143
GeAs2Ru,16.7983,14.737,-2.0612
SmSnAu,30.4465,21.1859,-9.2606
Ca2EuSn,14.4941,16.2153,1.7212
H2AuF6,6.8451,8.4214,1.5763
H2BrF6,2.9514,4.8521,1.9007
Al2TcMo,35.3736,28.4184,-6.9552
BaMn2Te,60.6263,48.12,-12.5063
GdI,16.4805,19.9432,3.4628
KBaBr,8.9181,8.0359,-0.8823
SmAl3Au,2.6323,8.0948,5.4625
ReTcS4,52.9674,41.7622,-11.2051
Ba2AcThO6,3.189,7.4156,4.2266
MnBeBr2,31.2087,25.1469,-6.0618
Ba2NbAlO6,8.3394,6.9444,-1.395
Ba2AcUO6,4.8864,7.4909,2.6046
AlTcMo2,41.8553,34.2434,-7.6119
PrSm3(Dy3Th)2,30.5811,32.401,1.8199
Dy4Ga2N,17.417,20.0879,2.6709
NaSb2Au,36.8697,31.5483,-5.3214
AlTcMo2,41.8041,34.2434,-7.5607
Ac2AlTlO6,16.3709,18.8681,2.4972
Sb2(AuF6)3,11.814,12.322,0.5079
ZnC3Se,50.3569,35.2291,-15.1278
MnSbTe2,57.8649,47.9093,-9.9557
Mg2HRh6C,36.8295,26.1708,-10.6587
Rb2ZnC,19.3112,14.0654,-5.2458
Y4GaS2,17.625,15.61,-2.015
Pb2Au,47.2313,50.4247,3.1934
Ba2AcPuO6,3.1163,7.3239,4.2076
Ga4Pt6S,56.7531,40.4343,-16.3188
TeAs2Pb,29.0372,29.1275,0.0903
Sm2TiGa4Au3,24.9826,24.199,-0.7836
MnSbTe2,57.5335,47.9093,-9.6242
Cs(ScPd)2,15.4443,14.9668,-0.4775
Ba2AlTcO6,4.3435,3.2528,-1.0907
MnBe2Br,28.2349,23.3987,-4.8362
Mn2BeBr,53.2876,41.3264,-11.9613
ThCr(FeO3)2,14.3344,12.6523,-1.6821
PaSbPd,37.3007,38.3307,1.0299
Mn2BeBr,53.4689,41.3264,-12.1425
SiH2F6,4.0182,4.1042,0.086