Formula,E_hull_DFT (eV/atom),E_hull_ML (eV/atom),Delta (ML - DFT)
TiTeP,9.9783,14.605,4.6267
LiTiSbTe2,27.3599,24.5762,-2.7837
Cu(SbAs)2,19.6996,16.2187,-3.4809
Sr3TiTe,18.5229,17.9945,-0.5283
AgSbAs2,24.3937,21.1745,-3.2192
Y2ZrSb,36.3339,33.8153,-2.5185
TiTe2I,27.6655,28.7569,1.0913
Be2CrTc,26.3301,22.6597,-3.6704
ZnPb3Cl,34.1013,34.8456,0.7443
ThPa2(GePd)2,35.8422,39.2466,3.4044
ScBiS2,34.7534,31.4272,-3.3263
TiTeOs3,36.6634,38.5037,1.8403
BeCr2Tc,28.1252,24.5002,-3.625
BeCr2Tc,28.1824,24.5002,-3.6822
Pr12NdEr7,8.7812,10.3595,1.5783
CsNa2CuSn,38.2991,32.5004,-5.7986
Ti(Te2Br3)2,21.5093,21.3454,-0.1638
BeCr2Tc,28.0941,24.5002,-3.594
Y2Hg,0.0,14.8814,14.8814
LiErLu2,24.4263,26.8869,2.4607
Cs4PuO4,17.4859,19.8781,2.3922
Hf4TiTe2,95.4075,70.0674,-25.3402
NiPtS4,53.56,39.6056,-13.9544
Ga3IrOs,22.9656,24.5961,1.6306
RbHfSn2,42.6404,33.3918,-9.2486
TaPPt4,67.8382,49.4977,-18.3405
La2YTl,41.8225,34.4763,-7.3462
Cr2PbAu,24.2012,26.0055,1.8043
TiTe4Rh,36.6123,33.9012,-2.7111
TiNbTe,40.6512,38.2902,-2.361
Hf3Th,124.4226,93.11,-31.3126
ZnCdRe,61.7157,47.9084,-13.8073
YHg2I,15.4195,13.1465,-2.273
TlCuRu2,24.2567,25.4198,1.1631
CdInSnBi,28.6635,30.1004,1.4369
Tm3Al3Si2Ir,27.4785,26.4058,-1.0727
HfTlAg,75.7299,59.9778,-15.752
Ba(SrPb)2,26.009,27.4987,1.4896
ThGePd,30.2038,33.9903,3.7866
Pu3(TeN)2,41.8895,43.9858,2.0963
Cs2YHg4,13.9042,12.1973,-1.707
Ti2BiTeI,26.8637,27.2285,0.3648
InSb3Au,40.8538,34.8038,-6.0499
Re2PbAu,46.0357,48.7405,2.7048
BaSr2Pb,19.664,21.0318,1.3678
TiTe2PI,25.1336,22.9143,-2.2193
RePbAu2,47.5956,49.6621,2.0665
HfTl2O,56.8755,48.5855,-8.29
RbSn2HgSe6,29.5016,24.4141,-5.0875
RbIn(SnSe3)2,30.9179,25.9052,-5.0126
Ba2ScCu,19.1206,14.9802,-4.1405
RuBrN,35.8814,31.0019,-4.8795
RePb2Au,48.6832,50.9503,2.267
Ca3BeSb,19.3927,13.0353,-6.3574
InSe,18.0115,16.4635,-1.548
LaPb2,51.9164,48.0725,-3.8439
Al2AsPb2,30.6344,28.1514,-2.483
FeReW,40.9695,39.0271,-1.9424
FeReW,40.9142,39.0271,-1.8871
FeReW,41.404,39.0271,-2.3769
HfNiSb,63.7657,46.0121,-17.7536
P2RuSeN,27.6154,24.4309,-3.1846
BaMo2P,18.365,16.0,-2.3649
BaSc4Cu,15.5356,13.2486,-2.287
Hf2NiSb,81.5951,59.4484,-22.1467
KCO2,0.0,0.0,0.0
Cu3RuN,29.3911,25.6585,-3.7326
Pr3NdTm5,14.5973,17.5194,2.9221
IrRuSeN2,42.5953,37.7243,-4.871
Zn2TeCl2O3,0.0,0.0,0.0
RuN,15.3363,16.6929,1.3566
ThGe2PdPt2,46.0831,38.6101,-7.473
Y3(HgPb)2,36.2738,30.8966,-5.3772
Y(SiRu)2,23.7453,19.0594,-4.686
OsPdRh2,39.4403,35.2364,-4.2039
Ba2Sr2Sc,4.5366,5.8204,1.2838
Nd(GeIr)4,19.0167,22.947,3.9303
Sr4Pd2N,17.7752,17.0316,-0.7436
NiSn2Rh,25.0304,21.2404,-3.79
Sr2Ta(TlTe2)3,41.0009,38.6974,-2.3036
PPd2Rh,22.1105,21.0311,-1.0794
SiRu2,24.3128,18.8327,-5.4801
ZrSc2SiC,49.7726,39.4954,-10.2772
Be2Sn2Br,16.3186,12.3155,-4.0031
FeRe2W,40.7061,40.8177,0.1116
Er11Tl9Cd4,35.4435,36.7886,1.3451
Sr2PrNpAs4,20.5031,18.605,-1.898
LiSi2I,19.4127,15.9854,-3.4273
Dy11Cd4Hg9,15.246,16.5271,1.2811
NbAuSe2,71.7634,61.6489,-10.1145
Y2Hg2Ge,17.8017,13.8838,-3.9179
CaCe(NiGe)4,15.7313,12.3104,-3.421
Cs2BrN2,11.5465,12.1198,0.5733
Sc3CuSb,27.1361,21.5943,-5.5418
Ca11Zn4Hg9,4.0581,3.8192,-0.2388
Ag2P2Ru,12.1893,11.4002,-0.7891
Na(FeOs)2,29.193,27.3557,-1.8373
BePPt,31.7442,24.5176,-7.2266
TcPW4,80.7608,72.4821,-8.2787
ZrBeAs2,33.4042,27.9356,-5.4686
ScSI,39.5238,36.4839,-3.0399
IrPdS4,42.6145,34.7272,-7.8873
TlInGa2Ir,26.0559,27.4343,1.3784
ZrBeAs,41.2664,33.5842,-7.6822
K(SbI3)2,23.6026,21.3309,-2.2717
FeAs2Se,51.6705,45.103,-6.5675
Ca2PrSmAg4,19.5344,16.6807,-2.8538
NaGd2Sc,22.2385,23.2126,0.9741
Zr2BeAs,55.0632,45.0077,-10.0555
PmLuPb2,40.5213,43.2603,2.739
Rb2PuSnSe4,35.0855,31.0755,-4.0099
Zr2BeAs,55.2287,45.0077,-10.221
Pa2CrCo,38.0126,40.7295,2.7169
Ca11Zn4In9,11.6327,11.5808,-0.0519
MgPaCo,24.6004,23.7181,-0.8823
Ca4Pr9Cd11,8.7247,8.8362,0.1115
Sc3SiC2,28.5585,23.948,-4.6104
NdGe3Ir2,16.3427,19.8932,3.5505
V(Ni2H3)2,9.1162,8.9044,-0.2118
V(Ni4H3)2,11.8597,11.3882,-0.4715
NdGeRh,20.3943,20.1214,-0.2729
TmGe2Rh3,32.1849,26.0102,-6.1747
PaTaSn2,36.4594,39.5028,3.0435
Ca2La3Pr7,12.5838,8.229,-4.3547
NaPuCdGe,31.1899,31.38,0.1901
Cs2Mo3O10,12.3671,12.7812,0.4142
TaSiOs,31.2683,33.9973,2.729
TaSi2Os,26.7237,27.4696,0.7459
Cs2MoO4,0.0,0.0,0.0
SiOsPb2,41.3864,41.5769,0.1905
CaTb2TmHg4,7.8234,9.9299,2.1064
SiSnRu,4.2381,2.9631,-1.2749
TlCu3,18.1621,19.5628,1.4008
SiOsPb,36.6744,37.9888,1.3144
Pr2Te3Br,16.3336,18.0093,1.6756
NdGeIr2,22.4676,27.5613,5.0937
CuGeRu2,7.411,12.4032,4.9922
CsGaO2,19.2623,18.81,-0.4524
GaN,4.6073,8.339,3.7318
BeP2Au,10.702,12.5364,1.8344
TaSiPb2,39.9318,40.2988,0.367
Ta2TlTe,42.6118,43.816,1.2042
TaTlTe,44.7498,45.0904,0.3405
TaSiOs2,33.9854,36.9974,3.012
TaSi2Os,18.2415,27.4696,9.2281
As2Ru,0.0,0.4845,0.4845
Ba2LiCu,4.4307,4.5157,0.085
LaYErSc,25.0371,22.6272,-2.4099
Cs2TmNpO6,5.4276,8.6387,3.2111
SnSb2Os,33.1513,31.5398,-1.6115
CsP2Ir,19.5816,18.9059,-0.6757
BaSr2Pt,29.0854,23.544,-5.5413
PaPtS4,63.0736,49.9006,-13.173
Sc3SiC,23.8831,20.4134,-3.4697
AsIr3O,30.1005,31.9812,1.8807
Sm2AlGe2Rh5,28.193,22.0166,-6.1764
InCoP2,19.0617,16.2794,-2.7823
PbAu2Br,47.1377,43.8402,-3.2974
BaMo2,5.8474,10.3274,4.48
Pm2MgTl2,26.9524,29.9026,2.9502
PbAu2Br,47.1113,43.8402,-3.2711
CeMg,10.0222,14.5151,4.4929
CrAuBr2,33.3524,31.7251,-1.6273
GeSbW3,35.5757,36.6908,1.1151
Y2AlHgN,39.6147,31.6463,-7.9684
NaLuAg2,30.0544,25.8633,-4.1912
LuAsRu,8.052,13.4816,5.4296
MnAlSiIr,49.7896,42.1981,-7.5915
Sc2CrAg,20.6725,17.3751,-3.2974
GaSbRh,33.7004,26.7915,-6.9089
S4BrCl,40.558,29.8306,-10.7274
BPS,5.1634,10.2776,5.1141
Pr3Mg5F12,0.0,0.0,0.0
HfIrPd3,49.1244,41.794,-7.3304
Ta2AgP2,17.2962,17.4318,0.1356
FeCuNiMo,43.4002,36.0377,-7.3625
RbTaC2,33.6081,27.938,-5.6701
Ca2InI,10.2195,12.7634,2.5439
U2Al3Co,26.4289,26.1027,-0.3262
FeReP2,47.8923,39.3553,-8.5371
HfIr3Pd,59.9182,52.9741,-6.9441
IrPd3Pb,30.7125,32.293,1.5805
LiCeNi2,14.8383,14.0131,-0.8252
ZrZn2Cr,32.0927,27.078,-5.0147
SmBeP,0.0,0.0,0.0
Ca(SmCd3)2,18.5808,19.6292,1.0484
CaCd2Au,15.5246,18.7698,3.2452
Ba8SnPb2,11.0474,12.0905,1.0431
Cs3AcPa2O9,16.0563,17.3353,1.2791
Y7(CoHg)2,37.123,28.7035,-8.4195
LaBeSb3,38.3507,28.6117,-9.7389
PuCoSbO,29.4172,31.5539,2.1367
Ac9La4Cd11,41.3726,39.3458,-2.0269
Ho9Tm4Cd11,24.2919,25.5805,1.2886
SrAu3C,43.4405,40.2737,-3.1667
Cs2Tl6BiPt,47.008,44.9646,-2.0434
Ca2LaYHg4,13.3755,10.5578,-2.8177
Rb2CoTcI6,23.6535,22.1423,-1.5113
SrOsPd2,23.15,25.7835,2.6335
Nd9Dy4Cd11,22.3595,23.6296,1.2701
BaNa(CuBr3)2,12.2314,12.2737,0.0423
La9Ho4Cd11,32.6333,26.7731,-5.8602
Ca3Ac7La2,47.6023,46.0802,-1.5221
Zr2TlSb,72.8326,62.4195,-10.4131
KRb3F4,4.18,4.0913,-0.0887
BaPa(GeS4)2,44.1888,34.5515,-9.6374
ScCrCl2,22.2266,19.9999,-2.2267
NaH7Pt4,27.8169,19.1426,-8.6743
Ca2YHg3,9.4499,8.0569,-1.3931
Tb2LuSc,22.9949,26.0169,3.022
Ba2Sr,4.888,6.0169,1.1289
As4RuI2,18.6988,17.6696,-1.0292
Er3Lu,30.409,32.8638,2.4548
Sc(BIr2)6,29.5428,29.7858,0.2431
In3Sn3Au4,30.9018,31.9978,1.0961
BaLi2Cu,5.9294,5.3562,-0.5732
TbLu2Sc,24.835,27.9171,3.0821
YZr2HgN,63.3693,52.644,-10.7253
SbOsS,28.3298,24.4985,-3.8313
TbLuSc,21.819,24.6054,2.7863
RbGaSn,7.3139,9.2335,1.9196
KAs2RhS8,44.5159,32.5001,-12.0158
TbAuSe2,36.5706,35.2355,-1.3351
Y3HgN,38.6618,33.4349,-5.227
Al5CuIr4,19.2067,21.9603,2.7536
KLaCu,20.496,15.6927,-4.8033
YHgSb,31.2719,24.3137,-6.9583
ScBeCo2,6.021,5.2889,-0.7321
RbGaSn2,12.9017,11.2275,-1.6742
YHgTeN2,35.1421,29.6,-5.5421
Sc2Sb5Pd12,26.0578,22.1274,-3.9304
ReN2,98.2617,81.8708,-16.3909
CrTe2Au,35.144,34.1296,-1.0144
Dy2SbAs,20.8379,23.1228,2.285
LiYInHg,19.0329,15.9551,-3.0778
CuAg2HgI6,20.5512,19.3055,-1.2457
Y2ThSc,24.7648,28.1238,3.359
YHgS2,39.9203,29.7213,-10.199
Rb2NaTaV,50.2589,39.1872,-11.0717
NaTiAl,14.3362,12.9947,-1.3414
CaLa(YHg2)2,19.1339,14.4536,-4.6804
SrYRu2,19.7998,18.2076,-1.5922
Gd2SbAs,16.5402,19.1366,2.5964
Ba3P,7.1571,0.0,-7.1571
Pb2WF,35.8898,36.6417,0.7519
TaC2,34.224,27.9021,-6.3218
NaTiAl,14.7543,12.9947,-1.7595
Ta(RhN)2,18.2704,15.9395,-2.3309
TlPbAu,47.5335,49.1013,1.5677
Sc4Mn2Pd,36.5217,29.6147,-6.907
Rb2BiCF6,15.8073,14.3554,-1.4519
MnBeP2,28.0394,21.7824,-6.257
TaSb2W,34.4737,33.5167,-0.9569
TaCBr,27.98,27.2246,-0.7554
CeEuAgPt,42.9497,35.9444,-7.0052
PrTl2CuBr6,14.4341,15.7475,1.3134
Rb2AcCuBr6,10.6407,12.1764,1.5357
TaAs2C,30.7297,27.5546,-3.1751
ThPa(MnS4)2,64.5587,50.5081,-14.0505
CeTaC,40.7715,37.4783,-3.2933
Ba2TaSiC,24.0236,19.2144,-4.8091
LiBeSb,16.0202,13.4717,-2.5485
AsRuPt2,53.8392,39.8096,-14.0296
SmTaC2,45.3566,38.8432,-6.5134
Ta3BiC,45.3304,43.7259,-1.6044
Ba3TaC,21.4165,17.7188,-3.6978
LaYHgAu,36.7481,30.5443,-6.2038
Ca2AcPaAs4,21.5459,24.0533,2.5074
RbNbGa2Te,42.2178,36.3029,-5.9149
TaAg2C,35.3044,31.3339,-3.9705
Be2SiI,31.0895,27.471,-3.6185
GdTaC2,46.3508,39.8658,-6.485
Ta3InC,38.1211,36.9533,-1.1679
TaSn3C,33.591,30.4146,-3.1764
CsU2CoO8,12.4262,13.8633,1.4371
Pr2Pd3Pt,21.6531,18.5088,-3.1443
Rb2PuCuBr6,15.1281,15.6997,0.5716
AlCu2Ir,12.042,14.4303,2.3883
NpTaC,56.099,52.9114,-3.1876
K3UBr6,11.8023,13.1726,1.3703
Na2Tl4In2Pb3,40.8637,40.5489,-0.3148
Cs2NaPmI6,18.9816,19.3495,0.3679
Tl2CuPbBr6,23.6836,22.788,-0.8956
SrS4Cl,41.444,32.3055,-9.1385
Tl2CuBiBr6,20.9044,22.0275,1.1232
TmTl2CuBr6,17.5598,19.3092,1.7495
ZrTl2Sb,61.2738,55.1568,-6.117
Pm2MgSi2,1.1528,4.4483,3.2955
TaCI,18.0453,20.0656,2.0203
SrSnAu3,35.7487,36.3027,0.554
NaLiLa2As,27.8225,20.5428,-7.2797
NbTe2PbI,61.3374,54.7617,-6.5756
TaInNiC,31.1745,28.4464,-2.728
RbTe2Pd,21.9407,23.2084,1.2677
Tb2DyHg4,11.3624,12.655,1.2926
YTmTe2,30.9551,31.0697,0.1146
NaTaC2I,42.2494,33.7685,-8.4809
TaW2C,45.4185,43.8577,-1.5608
Y2TcPb,78.0116,68.5863,-9.4254
CaTaC,34.1078,30.2022,-3.9055
RbPd3Se,20.5816,19.5572,-1.0244
Li2TaPC,25.4118,19.7696,-5.6422
Re3NiPb,52.9387,45.2618,-7.6769
RbTa3C,38.9769,35.7638,-3.213
Zr2TlSb,72.8977,62.4195,-10.4782
Ta2PC,25.2207,26.3017,1.081
TaTl3C,51.9858,48.0715,-3.9143
TaBeAgC2,42.0699,31.8569,-10.2129
TaAs2CBr,27.3339,23.6511,-3.6828
TaCuGeC2,37.5527,29.5165,-8.0363
Sr2Cr2N3,15.9422,13.6998,-2.2424
ScPd5Au8,34.8213,35.6169,0.7956
Na3TaC,36.0607,28.7679,-7.2929
TaInNiC,15.9514,28.4464,12.495
KTa2NiC,32.3418,29.6175,-2.7242
Y2TcAs,66.9798,57.496,-9.4839
TaAgSb2C,45.3864,36.1627,-9.2236
BaFe2,2.4207,4.3365,1.9159
Ta2RhC,35.8637,34.1972,-1.6665
AlAsAu2,39.3945,36.0682,-3.3262
RbTaC3,48.2345,35.9781,-12.2564
HfIn5Ni2,31.9971,27.924,-4.0731
TaSnRh2C,45.3871,35.3306,-10.0565
YHgGe2Sb,23.3129,18.6731,-4.6398
Na2TiPb,29.8855,27.6905,-2.195
TaW2C,45.826,43.8577,-1.9683
SbAsIr2,29.0453,31.3413,2.296
Li3HfOs,38.5074,30.6036,-7.9037
Ce2CuGePt6,59.6035,44.5594,-15.044
Ca3NdTl12,40.3459,41.2922,0.9463
AcNi(PS4)2,45.756,37.3267,-8.4293
Fe2PbBr,24.2012,17.6609,-6.5403
Ru2Pt4Rh3,69.5508,49.655,-19.8959
LiAu7,41.2963,42.4216,1.1253
Y2NiHg,67.5198,53.7377,-13.7821
CoNiS4,52.0721,37.7972,-14.2749
ReHg2Mo,17.6229,16.9137,-0.7092
Y2NiHg,67.7332,53.7377,-13.9955
Tc2IrBr,60.9754,53.6934,-7.282
BaRh(WS4)2,47.6963,37.0008,-10.6955
BePIrS2,38.1463,30.7818,-7.3646
Ca2TlHg3,9.5694,10.5195,0.95
TcIrBr2,40.7871,38.7039,-2.0832
Y2Ni2Hg,60.5927,52.6703,-7.9224
LaCe(HgPb)2,26.1365,25.4217,-0.7148
Sn(RuO)2,42.9738,36.6988,-6.275
CaPm(SmCd2)2,19.2434,21.4174,2.174
ReHg2Mo,17.1906,16.9137,-0.2769
Ca2In16Pd7,17.6436,18.5395,0.8959
SrPm3Rh,27.1612,25.3225,-1.8387
BeCuP,0.0,7.4598,7.4598
CoSnRh2,25.3206,21.1488,-4.1718
CsSmS4,39.9777,32.5548,-7.4228
TaRu2N,32.7422,33.8321,1.0899
Ga2Sb2Au,27.4822,24.3073,-3.1749
Cs2BeAs2,13.9618,13.2052,-0.7566
Y2SiHg,35.0875,28.0632,-7.0243
Sb2Te2Se,40.9379,34.2212,-6.7167
NaLiBiTe2,32.6637,30.9265,-1.7372
Y(SiHg)2,20.6405,16.5819,-4.0586
Mg2ScPd2,11.8529,12.1043,0.2514
Ba2Mo,3.4296,6.2372,2.8076
YSiHg3,17.8458,14.5983,-3.2475
NaBeTe2,27.4796,25.6395,-1.8401
LaHo4Tl15,46.1124,46.2103,0.0979
Sm2AlGe4Rh3,26.9446,22.2586,-4.6859
YHgP2Se,25.2147,19.2732,-5.9414
PuInHgRh,35.0116,32.7121,-2.2995
Zn2PbSe,29.1007,27.6492,-1.4515
ScCoMo,21.7966,21.7352,-0.0614
Ca2Pm2Sb3,23.6637,20.7672,-2.8965
YHgAs2P,22.2769,17.9721,-4.3048
CaY2HoHg4,16.1986,13.4459,-2.7528
NaPS2,36.4809,31.4514,-5.0295
TcRh2Br,51.2057,40.5109,-10.6948
K2ZrOs,42.2796,38.1157,-4.1639
Ac3Y2Hg3,36.4421,33.957,-2.485
Pd2RuRh,36.4607,30.6925,-5.7682
Ca2YHoRh4,32.9122,24.1688,-8.7433
Ca4SnHg2Ge,6.2235,7.4453,1.2218
Cs2TeW2,30.2222,32.5396,2.3175
Rb2GaSnSe4,23.8429,20.5566,-3.2863
P2PtSO,39.2613,30.5643,-8.697
CaLaHgRu,17.9804,15.8497,-2.1307
CaLa2SmHg4,16.0052,12.5482,-3.457
Li2AcNdIn4,22.0272,22.4397,0.4124
Ca3In13Ni4,13.6388,12.915,-0.7237
Y4HgAu2,31.4929,29.0848,-2.4081
Ca4Zn2InGe4,8.9562,9.7464,0.7902
Cs2RbAgO2,9.6205,9.5316,-0.0889
Yb3In3CuSn2,33.2121,32.2392,-0.9729
YHgPd2,21.8447,19.4333,-2.4114
YHgAu2,32.36,31.1188,-1.2412
YHgSe2S,40.6554,30.8886,-9.7669
CaTm3Hg4,11.4656,13.007,1.5414
Ca2NdAs3Pd7,15.4181,16.1877,0.7696
GdYHg2,19.3778,17.6055,-1.7724
BeGa2Ni,5.7174,7.7112,1.9938
GaHgS4,35.7107,26.3786,-9.3321
Th(MgTl)2,34.492,36.303,1.8109
MnBeRh,42.3697,33.1461,-9.2235
LiInNiF6,2.9494,5.274,2.3246
MnBeRh2,49.4317,37.6306,-11.8011
VNi3Os,39.2417,34.9413,-4.3004
BeInP3,7.728,7.4165,-0.3115
CaHfOs2,50.8752,46.4002,-4.475
Cs2Tl4Ni,36.8708,37.8819,1.0111
Ga3ReNi,30.4826,21.8923,-8.5903
YMnHg2,37.3632,28.3818,-8.9814
GdGaCuNi,15.2604,14.9698,-0.2906
SrPa2PdS8,50.6102,41.1264,-9.4838
CeSnN,26.6617,24.0754,-2.5863
Er4TmS5,41.2717,34.0982,-7.1735
GaNiAsSe2,36.907,32.9296,-3.9774
SiP2SeO,24.8079,18.8286,-5.9793
Na2(LiPb)3,25.8505,25.3464,-0.5041
YMnHg,34.0819,25.6818,-8.4001
V2NiOs,76.2263,64.8571,-11.3692
SrPa2PtS8,56.5587,44.7092,-11.8495
Nd2Y2Hg,25.2694,21.642,-3.6274
Pm4Pr9Ag11,16.5319,13.7387,-2.7931
Sc3SnW,21.8782,19.8629,-2.0153
Pr9Nd4Ag11,16.5115,13.7256,-2.7858
Li(PmPb2)2,36.9886,38.394,1.4054
YMnHg,33.7973,25.6818,-8.1155
ScAlGa2Ni5,15.0034,12.4895,-2.5139
Cs2TlF4,17.1662,17.6148,0.4486
BiP2Se,28.1357,27.0736,-1.0621
Ga(NiAu)2,21.2923,22.229,0.9367
NdY2Hg3,16.8127,14.6177,-2.195
LiTbNi,11.0035,13.3567,2.3531
RePt2W,64.2365,53.867,-10.3695
ScSn2W,29.3493,27.8455,-1.5038
U(GaNi)3,11.094,13.7388,2.6448
Ce2PuMn2,55.2517,49.0521,-6.1997
Th7Cd2Hg3,41.7956,43.5184,1.7228
GeSeS4,47.5302,35.5913,-11.9389
SrGe2Ru,8.7414,8.9079,0.1665
InCuN2,2.506,6.0566,3.5506
EuGa3Ni,11.5589,13.0927,1.5338
UGeS4,50.0789,41.4539,-8.625
YHg3B,41.2025,32.7513,-8.4511
Tl2CuNi2,20.9,23.3686,2.4686
PdRu2S,20.0979,21.2163,1.1183
RbNi4S3,24.1678,19.2566,-4.9112
CaGa4Pb,15.0109,16.2972,1.2864
ReS4I,43.2611,36.9465,-6.3146
InPIrS2,42.3397,34.6251,-7.7146
YAlHg2,19.136,14.5909,-4.5451
Pr6TlGa2,5.3596,4.447,-0.9126
SrCd2Sn,18.5236,18.2647,-0.2588
V4Ni2Sb,85.648,66.2563,-19.3917
YTh(AlHg2)2,18.1504,16.3771,-1.7733
PaBe2Cu,25.5021,24.5502,-0.9519
Pr6NdY12,9.6022,10.0612,0.459
TcSb2W,49.0578,42.9289,-6.1289
SrSb2Ru,29.7919,26.7075,-3.0844
Pu2Mn2Ge,38.7964,34.6571,-4.1394
Cd7In3Sn2,19.66,20.5301,0.8702
HoPaS4,52.0611,42.2746,-9.7864
Os2PtPb,57.3561,53.3638,-3.9923
YTlHg,30.1795,30.1312,-0.0483
AsRu2Pb,26.4186,27.2005,0.7819
Ti3RuW,22.9629,20.647,-2.3159
K2ZrRe,41.8393,37.8134,-4.0258
PmYAlCd,30.0055,26.1902,-3.8153
BeP2IrAu,26.053,23.6977,-2.3553
Hf(MnNb)2,125.2638,98.1898,-27.0739
NbAlB,40.7603,28.6701,-12.0902
Y2TlHg,38.1154,31.7148,-6.4006
Mn2Pd2Rh,56.5854,45.2897,-11.2957
Ga2ReNi,29.7043,22.1606,-7.5437
CaMnI,33.9445,28.1127,-5.8319
SrPbBr3,26.8067,22.3964,-4.4103
Cs2AsIr,21.6332,25.5004,3.8672
Ni2Pt3Rh2,48.1554,34.9331,-13.2222
K(SnSe)2,26.0348,23.1662,-2.8686
In(GaNi2)6,7.518,8.7927,1.2747
Th2PaMn2,71.1398,65.081,-6.0589
MoW2,31.0424,37.8956,6.8532
Ac2Dy7Er3,34.174,36.2009,2.0269
BaMo,0.0,4.5979,4.5979
Zn2TcMo,31.1674,29.0318,-2.1356
YTl2Hg,34.967,35.3452,0.3783
NdBeNi,10.1117,13.1379,3.0262
Pm3YCd4,20.2955,22.1059,1.8105
Na3La(PmSe3)2,36.9868,30.6802,-6.3066
ZnTcMo,38.7069,36.3676,-2.3393
Ni3AgBr,13.634,12.8655,-0.7684
Y2TlHg3,21.872,18.6365,-3.2356
ScAgBr2,16.559,14.1766,-2.3824
TiBeP,0.0,0.0,0.0
LiLa2ZnO5,31.3647,26.8194,-4.5453
TlReAu,47.163,49.4314,2.2685
NiAg2Br,20.4593,17.4664,-2.9929
Sc2AgBr,13.9844,12.3255,-1.6589
Y3SiI,27.7936,24.8534,-2.9402
GdPuNi2,30.834,30.5453,-0.2887
TaCu4,14.3088,15.7441,1.4354
SmDy2Hg,19.6383,22.2175,2.5792
MnBeBiP,29.1809,26.7641,-2.4168
In2IrOs,31.7281,34.5223,2.7942
SrRuC2,33.3454,27.9138,-5.4316
Cd2InW,24.7252,26.5167,1.7915
Ni2AgBr,14.3823,13.5297,-0.8526
RbZn2Os,15.8611,16.7439,0.8829
InIrOs2,37.1536,41.2325,4.0789
CdInW,11.2881,19.9852,8.6971
Hf5Cd3,97.0096,70.4534,-26.5561
Mn2AlGe2,45.8484,35.1246,-10.7238
In3IrOs,30.0771,31.5953,1.5181
Pr12Ag6Ir,9.042,7.6821,-1.3599
In2IrOs,31.645,34.5223,2.8773
CdInW,10.2342,19.9852,9.7509
Cd5Pb3,31.7446,32.7128,0.9682
LiY4Hg,21.9572,17.6642,-4.293
In2IrOs,31.6315,34.5223,2.8908
AcNdEu2,36.4944,38.064,1.5697
Ca2AlCo,17.4536,12.0509,-5.4027
Be3TcI,32.6955,28.9557,-3.7398
Ac2NdEu,45.5023,47.9266,2.4244
LiOs2AuSe,37.4471,37.0306,-0.4164
LiLuAu,26.6038,28.5968,1.993
NaPd5Pb4,32.2315,32.7706,0.5391
LiOsAu2,34.5767,36.6244,2.0476
NaLaTePt2,59.8852,43.8962,-15.989
YNb2CrHg,79.8688,63.2699,-16.5989
Ca2AcPrHg4,8.4121,9.1792,0.7672
Li3OsAu,19.1033,19.6457,0.5424
Rb2NdCuI6,13.0085,14.9308,1.9224
Rb2PmCuI6,13.0245,14.9482,1.9238
Al5Re3,16.7628,19.3549,2.5921
ReSbOs2,42.5174,44.3592,1.8418
TaSbS4,50.8537,38.5047,-12.3491
Rb2CuPtI6,20.4427,18.277,-2.1657
FePCSe,38.2584,28.504,-9.7544
Cd5In3,19.4522,20.5121,1.0599
Ba6La,8.3433,6.4772,-1.8661
Dy6Y2Hg,29.5417,28.2345,-1.3072
MoW3,33.072,39.7961,6.7242
Li2CrAu,14.5398,14.7516,0.2119
YAl2GaHg,18.0641,14.4617,-3.6024
LiCoPbAu2,33.2641,32.2586,-1.0055
Ba4RhSeI2,16.6301,14.7666,-1.8635
MnAl3Ge,32.4123,25.1586,-7.2538
Li2CoMoAu,16.3776,16.325,-0.0526
YSi2Hg,25.7196,21.052,-4.6676
KMn2Al,54.1923,42.3293,-11.863
BaAlGe,5.2297,6.88,1.6502
YSiHg2,22.0409,18.2883,-3.7525
InPBr2,8.1966,9.6952,1.4986
AlCrAs2,21.729,16.202,-5.527
Rb2SrCo,5.5581,5.6785,0.1204
Be2AlTc,31.7052,26.8682,-4.8371
Y5Hg3,31.3445,22.6234,-8.721
Li2CrAuI,16.7967,16.491,-0.3057
Ce3Bi5,42.9453,44.2018,1.2565
FeSb,24.5877,27.1043,2.5165
SrTlCr,14.7622,15.7841,1.0219
CaPm(SmBi2)2,36.4408,38.664,2.2231
Pr2NbIr,44.4706,40.3322,-4.1385
Sr2CrGaTe,18.6179,17.1761,-1.4418
Ce3Pa5,51.451,55.3288,3.8777
ZnRu2Pt,32.5238,28.4271,-4.0966
Ta2BeTl,34.8151,35.9736,1.1585
Mg(CuH4)3,4.0076,3.0355,-0.9721
YTmNiHg,48.8038,44.5737,-4.2301
TaBeTl2,38.542,38.8227,0.2807
YGaHg,15.4711,13.7589,-1.7121
K3Bi5Br12,13.3597,14.0017,0.642
TaBeTl2,38.4548,38.8227,0.3679
Ba2PaCuSe6,35.3452,30.1109,-5.2343
Li5Pb4Au,25.6879,26.9488,1.2609
LiEuAu,24.9062,26.2217,1.3155
Na4CdI2,22.9556,19.9561,-2.9994
CuPd2PtSe6,37.5505,30.1089,-7.4417
Be3ZnGe,8.9129,6.4856,-2.4273
Be2ZnP,9.7912,6.1097,-3.6815
K(Tl3I4)2,32.7343,32.9924,0.2581
BeV3Ga,79.3442,62.8775,-16.4666
Cd11Pt4Au9,41.2738,37.115,-4.1588
Ir3PdPb,42.5735,44.1115,1.538
CeNiPt4,59.5168,43.0092,-16.5077
Li2CeHgAu2,21.0623,21.7399,0.6775
SrAl2Br,6.3738,7.1086,0.7348
SnRh3Br,37.0609,27.8121,-9.2488
RbZn2Bi,18.0491,18.7525,0.7034
PuTh7S8,59.9706,53.9663,-6.0042
K3Nd5I12,10.7906,12.1989,1.4083
Ca3Tb(DyRh3)2,31.9374,25.8696,-6.0678
Cr4AsAu,16.6358,16.1988,-0.437
RbErTl2,33.2227,34.3165,1.0938
Li5SbAu4,23.1392,23.1736,0.0344
CaTmGa2Pd5,17.2111,17.7081,0.497
Tl(GeAu3)2,36.1128,38.4294,2.3166
Ca2Cd3PtAu12,40.1485,39.5558,-0.5927
Ca2Be3CdAu12,36.7434,35.4919,-1.2515
Li2OsAu,22.7217,24.4487,1.727
Pr3Sm6Tm,12.2044,15.3544,3.15
Ca3PbSe4,62.3097,51.7723,-10.5374
ZrTl2I,56.254,52.0948,-4.1591
Li2TaAu,21.4937,23.5199,2.0262
Be(AlTc)2,41.6512,33.6404,-8.0108
Li3AuI,14.1256,14.5866,0.461
BeAlTc,47.1491,37.9078,-9.2413
HfGeRh2,53.9256,38.6155,-15.3101
Ba2ZrSn,30.0081,26.8401,-3.168
YInHg6,8.5182,7.2517,-1.2666
Li2RuAu,16.2163,17.9704,1.7541
Pr6Sb3Te,8.6284,8.321,-0.3075
LiMn2Au,56.703,46.3009,-10.4022
LiTiHgAu,21.4262,16.4787,-4.9475
Be3AgRh,18.5747,13.4413,-5.1333
LiNbPAu2,52.8094,45.5628,-7.2466
Ce11Hg9Pt4,25.6205,21.9473,-3.6732
YRe2Hg,27.0702,27.9627,0.8925
RbAs2Ru,34.6875,29.7388,-4.9486
As3RuW,27.4629,22.5289,-4.934
Ga2Ni3Au2,20.7131,20.2993,-0.4138
Li6SbAu,11.4286,10.9558,-0.4728
NaCeAu2,35.57,35.9946,0.4246
Ta2Cu,19.1552,28.6743,9.5192
Nd3Fe2Co7,21.4561,18.4405,-3.0155
ThSnO4,36.2503,33.9978,-2.2525
AsRu2W,40.6973,32.3167,-8.3806
YZr4Hg,74.1487,60.3022,-13.8464
ThSnO,51.9658,46.9121,-5.0537
SnSb2Ir,33.4782,31.8381,-1.6401
Rb3Tm2SnSe6,30.0443,26.2587,-3.7856
PrAl5Os2,12.4186,14.0899,1.6713
BeAlTc2,58.4941,47.0468,-11.4474
MnSbW2,47.371,44.4556,-2.9154
Be2AgPb,22.9884,21.0631,-1.9253
Li2OsPb,24.168,25.9889,1.8209