Formula,E_hull_DFT (eV/atom),E_hull_ML (eV/atom),Delta (ML - DFT)
ZrSc3Pa,28.8537,28.4285,-0.4252
K5FeNiH2,17.6723,13.4422,-4.2302
BeTcI2,41.62,40.1707,-1.4493
ZrSc3Sn,26.2509,21.4742,-4.7767
HfScB3,31.0943,24.4447,-6.6495
PuZrSc3,38.2529,35.8679,-2.385
Hf(Cu2Tc)2,52.1946,42.7886,-9.406
ZrSc3Tc,63.4265,55.7654,-7.661
ThScAu3,36.4311,40.2804,3.8493
SrHfGa,50.404,40.78,-9.624
YAlRhO4,11.1675,9.7226,-1.4448
SrTa2VO8,27.6701,22.8945,-4.7756
ScCd3Hg,12.6436,13.3416,0.6981
PrPu2Pt9,77.9598,56.6883,-21.2715
Y6InPd2,17.1415,15.8538,-1.2877
CaSc2Fe,28.45,23.7888,-4.6612
Fe5W,7.7252,11.1324,3.4072
Ta2TlCr,59.4863,50.4312,-9.0551
Y3B2Ir2N3,60.1217,51.3372,-8.7845
SmScCu3,17.5175,17.1187,-0.3988
Zr2SbPb2,63.8375,55.4365,-8.401
V5(P4Pb)3,24.4424,19.383,-5.0594
Li2AcTl4In,36.4767,37.2459,0.7692
CsNi3Sb,23.1536,20.0019,-3.1517
YHfZnCu,55.7933,43.3558,-12.4375
Pr2NdRu,35.7363,33.6393,-2.097
LiLaSmEu,26.5585,23.8879,-2.6706
Y2Zn4Ga3Cu,14.5993,13.3499,-1.2494
ZrP2Os,36.4478,33.4703,-2.9776
MnBe2Ag,34.1745,27.8479,-6.3267
V3Bi,102.792,82.9801,-19.8119
ThScGa3,13.4899,17.4928,4.0028
FeNi2Ag,28.3727,25.5416,-2.8311
BiAuBr2,31.2344,32.8651,1.6307
Tl2CdI,35.8741,36.4426,0.5685
Y3NiTe2,57.6246,50.9392,-6.6853
YZn6CuAg,14.291,13.0533,-1.2377
Zn(SbAs)2,20.2902,16.9824,-3.3078
CsCo4Bi3,26.8925,28.4661,1.5736
YZnCuSn,36.5674,32.0608,-4.5067
Ag7Ru,29.9402,24.7933,-5.1469
MnBi,48.3895,41.5946,-6.7949
Y2AlTe4,36.1112,32.1169,-3.9943
CuNi4Pt,20.1531,17.313,-2.8401
TaCrW2,55.9964,49.4,-6.5965
SrThSc2,22.5677,25.6963,3.1286
LaMn,76.8096,58.2141,-18.5954
Ce(ZrCo)2,46.5273,40.4802,-6.0471
CePrAg4,24.1443,21.255,-2.8893
AlCrPt2,47.4305,32.8375,-14.593
AlPAu2,41.483,38.8383,-2.6447
NaPuZn17,11.83,12.2469,0.4169
NaCaZn17,8.6076,8.6362,0.0286
AlCd3Te4,28.2977,27.5378,-0.7598
Li2BeI,15.7867,17.7357,1.949
AlPAu2,41.5573,38.8383,-2.719
RbTbCd17,18.5993,19.0521,0.4528
Al2PAu,30.0094,29.4331,-0.5763
La2ErAg,41.1894,32.4025,-8.7869
SrInRu3,17.7116,19.4754,1.7639
SrZrSc2,30.7788,27.8525,-2.9263
Sr2ZrSc,33.2303,29.2277,-4.0026
CsRbZnGeO,20.9849,16.0643,-4.9207
GaCuNi4,7.6159,9.2808,1.6649
LaTh3Sc,44.915,46.3536,1.4386
Tb4Ir2PdRh,31.6653,31.7966,0.1314
Sc6BiAs2S3,39.633,34.2251,-5.4079
Ca3FeCo,20.2249,14.6719,-5.553
DyTlCd17,21.2485,21.7808,0.5323
CaFe4Co,13.5469,10.6034,-2.9435
AcErCd17,21.9756,22.595,0.6194
DyTmCd17,20.1357,20.7494,0.6136
Na(BeV)2,51.8427,42.1736,-9.6691
HfMnZn17,19.6347,16.8778,-2.7569
ErTlCd17,21.3616,21.8769,0.5153
Na(BeFe)2,16.4268,13.2108,-3.216
NdSm3Sc,6.1469,11.4662,5.3193
NdEr3Sc,8.9791,14.1257,5.1466
Sr(HoS2)2,22.2144,19.2546,-2.9598
NaCeMg17,4.9364,5.5728,0.6364
ErPuCd17,22.4481,23.0812,0.6332
Zr(CoSn)2,23.6551,22.618,-1.0371
K4Br2F,9.8454,9.1237,-0.7217
SrSc2Re,38.4224,32.9123,-5.5101
SrSc2Re,32.8873,32.9123,0.025
CaLa2Mn,52.3076,39.41,-12.8976
NaPaZn17,11.6015,12.0546,0.4531
NaNpZn17,11.7733,12.2449,0.4716
BaErCd17,18.5825,19.1627,0.5802
Ce2CoBr2,19.5407,18.9323,-0.6084
CeNdScPb,26.7414,29.7643,3.0229
SmCo4Cu,19.8586,19.0162,-0.8424
LaScCu17,12.248,11.4733,-0.7747
ScMo3Cl,26.8744,25.7958,-1.0785
YTeI2N,43.0511,37.0194,-6.0317
GaNi4Ge,9.8318,10.1513,0.3195
Ta(AuC)2,46.9529,40.9683,-5.9847
ThScCd17,20.8726,21.4494,0.5768
CaPrZn17,7.0022,7.3421,0.3399
LaHoNi17,9.5801,10.199,0.6189
NdScCu17,10.824,11.1278,0.3038
DyScCd17,18.8176,19.3675,0.5499
PrPuNi17,10.529,11.3121,0.7831
PrUNi17,10.3359,11.5154,1.1795
CaUZn17,10.9155,11.2582,0.3426
RbTmCd17,18.8319,19.2694,0.4375
RbThCd17,20.6914,21.1161,0.4247
DyCoBiH2,12.587,15.9173,3.3303
Y2PaP3,34.5892,28.6666,-5.9227
Ni4GeRh,16.7575,13.9999,-2.7576
YP2Ir3,21.6039,19.858,-1.7459
YP2Ru3,3.4051,4.2448,0.8397
YScCd17,18.1014,18.6529,0.5515
CsTbCd17,19.791,20.3207,0.5296
LaCeCd17,21.0469,20.6345,-0.4124
Ag2Pt2Au3,54.79,45.3824,-9.4076
YNp2P3,7.9318,10.5568,2.625
Mg2S2O7,3.5271,3.5849,0.0578
YHf2P3,59.897,43.0669,-16.8301
SrNdHg17,1.5911,1.8793,0.2882
ThCd17In,21.6764,22.1913,0.5149
ThCd17Pb,23.3926,23.9137,0.5212
LaErCd17,21.2989,20.8776,-0.4213
HfTiZn17,14.616,13.0186,-1.5974
PaTiZn17,10.5861,11.379,0.7928
Ac2HgWO8,14.2609,16.4813,2.2205
KGe2PdO6,6.1446,5.7767,-0.3679
Ac4UN5,33.0493,34.7075,1.6582
AlTe3Pt,44.5521,36.5085,-8.0437
CeThZn17,11.4026,12.1424,0.7398
AcCeHg17,4.3152,4.6307,0.3154
Ca2AlInSe5,43.4609,35.3341,-8.1268
PmSmCd17,19.6496,20.2208,0.5713
ReNi4Ir,23.4957,20.393,-3.1026
NdHoCd17,19.8316,20.4537,0.6221
K(Co3S4)2,33.0917,24.3603,-8.7314
AcUB12,9.6821,11.5215,1.8394
YBTe2I,62.0426,52.8621,-9.1805
MgC2,35.9132,28.188,-7.7252
Sc5S5N,43.7796,39.686,-4.0936
MgC,22.6497,21.4322,-1.2175
HoScSe3,27.8344,26.0292,-1.8053
TmTlCd17,21.4344,21.9482,0.5139
LaPaZn17,12.9144,12.6433,-0.2711
ScSbSe3,34.2125,27.4872,-6.7253
CePbAu17,46.3001,47.1374,0.8373
Ba2Tl6CdPb,35.1815,36.3283,1.1468
NdNpZn17,11.6644,12.454,0.7895
PaZn17Mo,11.2182,11.9525,0.7343
K2NaTeF,28.8926,24.6963,-4.1963
Ta2CoNi2,35.1351,31.6123,-3.5228
CsPuCd17,22.215,22.783,0.568
AcPrNi4,18.7737,18.8774,0.1037
Li2Ce2Sb2O,27.9386,24.8603,-3.0783
PuNpZn17,14.213,15.0314,0.8184
Sm2Np(SeN)2,29.5651,30.2062,0.6412
Tb3Nd3Tl2,31.7283,33.5351,1.8068
Zn2Co2Si,14.7706,7.4945,-7.2761
Sc2SN,25.5105,26.4465,0.936
Co(PdPt)2,45.762,34.7934,-10.9686
HfMoRu2,49.0946,41.4076,-7.687
Na3(AgBi)4,37.9092,34.529,-3.3802
AgBiTe2,42.6927,40.8587,-1.834
Li4SeO,17.8008,15.3886,-2.4123
GaSn2Os,23.2356,25.8457,2.6101
Tb2Pm2Co,16.5308,21.5099,4.9791
ZnCo,7.5481,0.6073,-6.9408
Co(IrRh)2,38.2681,35.1954,-3.0727
KAcCd17,21.0756,21.5139,0.4383
La3TbYEr,32.4497,26.4488,-6.0008
KBaHg17,0.207,0.3142,0.1072
BaTlB12,4.1236,5.575,1.4514
Sr2InMo,12.9469,15.7118,2.7649
AcY2Th,39.6217,43.2872,3.6655
CaInB12,2.2735,3.8752,1.6018
Sm2Tm2Co,18.2636,22.914,4.6504
CaNdB12,2.2463,4.0209,1.7746
CsRb3Be,6.9569,6.2263,-0.7306
CsNi2Bi,19.9931,23.6937,3.7006
CaSnB12,2.2998,3.9651,1.6652
Co(IrW)2,35.4029,38.4617,3.0587
MnHgBr2,30.074,26.8561,-3.2179
Tb3(Y3Er)2,20.2722,22.4881,2.2158
SrInMo3,18.5898,19.2236,0.6338
Nd2ScAlS6,35.7888,29.088,-6.7008
CsKHg17,1.5189,1.5849,0.066
CaUB12,5.5015,7.1733,1.6718
KTlHg17,2.9791,3.0463,0.0671
KHg17Pb,3.0937,3.1511,0.0575
In4CoPb2,28.6004,28.8335,0.2331
SrInMo2,17.0724,19.1404,2.068
Li2NdPN,12.7746,11.3231,-1.4515
PmNdSmHo2,22.2659,26.8519,4.586
BaCdB12,2.804,3.2766,0.4726
CePuB12,7.0497,8.8098,1.76
K2SrIr,22.7643,19.5103,-3.254
NiTeI2Br,21.4412,21.1201,-0.3211
CeTmB12,4.1108,5.8389,1.7281
TbCeB12,3.7868,5.5272,1.7404
CaSmEuLu,23.1071,25.4561,2.349
Na2BeAuBr,21.8144,19.8834,-1.931
CuSnMo2Os,45.9993,37.9293,-8.07
Ce3YPb5,33.4339,35.5205,2.0866
AcCrB12,5.6978,6.9932,1.2954
CeUB12,6.8557,8.6413,1.7856
Ac2GaCo2,29.7568,33.003,3.2462
TbTh3Sc,39.4077,43.8418,4.4341
CsAcB12,6.6546,8.3298,1.6752
Ba2Ag3Hg2,10.8531,9.318,-1.5351
TiNb2B,63.8831,57.7882,-6.095
Pm2PrTi,12.922,16.5598,3.6378
DyPaB12,6.9582,8.8497,1.8915
Ce2Cd2Ag3,22.6185,21.6012,-1.0173
BaYIrO6,16.1505,15.7436,-0.4069
HfNbPt4,106.3524,75.7891,-30.5632
CaY2Ru,21.7025,17.9808,-3.7217
LiUBe17,4.2495,5.474,1.2245
CaTaNiN3,13.552,11.9558,-1.5962
LiTmBe17,4.8771,4.1606,-0.7165
YCo2TcC,65.5088,54.4728,-11.036
SrTlRe2,44.684,43.3966,-1.2874
LiTiBe17,2.4941,3.0296,0.5355
LiBe17W,6.1951,5.381,-0.8141
BaYSc2Co,26.3968,22.6983,-3.6984
LiTaBe17,6.0374,5.1655,-0.8719
SnHgPb2I,30.4023,30.5751,0.1728
LiBe17Mo,2.2061,2.5762,0.3702
KTlPb,30.9152,33.9287,3.0136
LiBe17Os,2.7124,3.5216,0.8093
LiPaBe17,5.5048,5.3246,-0.1802
LiBe17Nb,7.943,7.5864,-0.3566
Y3IrSeCl,38.5501,38.6049,0.0548
Y2CoSi4Pt3,48.8911,34.547,-14.3441
NaTeAsC2,41.6047,31.5025,-10.1022
YSc3Ni2,25.4028,23.7735,-1.6293
AcLaB12,8.3233,8.9473,0.6241
NaCaTa2N,30.5407,28.0405,-2.5002
Pm3Y7Er2,19.2865,22.2759,2.9895
Ni2HgRhI,18.2151,15.5763,-2.6388
YSc3Hg2,5.8459,6.274,0.428
CrCd2Ni,24.2276,24.0576,-0.1701
Y3ScIn2,16.196,16.1642,-0.0318
SrBe3Br,10.505,8.2418,-2.2632
ZnGeOsSe2,31.6169,28.0872,-3.5297
Y3Er2Sc,11.7983,15.0393,3.241
LiScBe17,2.4416,2.4341,-0.0075
Y3ScSb2,23.0858,20.9039,-2.1819
LiThBe17,4.0954,5.3472,1.2518
LiTbBe17,1.9594,3.1737,1.2143
AgSb2Mo,34.4277,29.5435,-4.8842
YVTeI2,46.1209,39.7285,-6.3924
CdSbPb2,42.3568,40.9247,-1.4321
Cd3Pd2Rh,23.393,22.2502,-1.1429
HfNp(UAs2)2,48.1252,45.1268,-2.9983
KTc2Br,48.408,41.3292,-7.0787
Ca6Sb2Ru,15.9136,13.6076,-2.306
CaYTeI2,24.4969,21.6518,-2.8451
PdPt4Rh,64.668,44.5473,-20.1207
Li2Y2Ga,3.6936,5.2231,1.5296
Rb2MgSnF6,11.6938,10.1282,-1.5656
CeY2S3,35.1588,28.7295,-6.4293
NbGeB3,32.0644,28.3808,-3.6836
TbY2S3,35.4558,28.5623,-6.8935
Sr(GaMo)2,6.9672,10.7503,3.783
TiPRh2I,27.5562,20.9975,-6.5587
YSc2S3,43.3059,37.929,-5.3769
Zr3Ga3Ni2,22.1745,18.9075,-3.267
PmMgB12,3.2086,4.3392,1.1306
YTaTe2I,46.5224,39.9216,-6.6008
NbFeB,47.288,41.8174,-5.4706
CaInTe2W,30.8065,30.166,-0.6405
LaPmB12,5.5192,6.1318,0.6127
Ca3PmY3Se8,45.9689,37.7001,-8.2689
LaPaB12,8.6095,9.0882,0.4787
CaNd3(YSe3)2,38.1356,32.5415,-5.5941
Rb2WSeI6,23.4418,22.2389,-1.2028
Tb4Y6Er,20.0534,22.2759,2.2226
Tl5Pt,54.265,50.492,-3.773
Li2YCdO,21.1176,18.8528,-2.2649
TbY7Er3,19.5051,21.3151,1.81
LaTbB12,5.6743,6.0013,0.3269
Y3ScSi2C,42.548,34.721,-7.827
LiCeZn17,8.0392,8.7098,0.6706
RbPb5,40.872,41.9866,1.1146
LiZn17Cd,7.877,8.3138,0.4368
Hf2PRh2,68.5759,48.6088,-19.9671
MgUB12,6.456,7.5498,1.0938
K2TaPt,34.3956,29.4765,-4.9192
Hf2TaCo2,83.8953,61.6678,-22.2275
CuTc2Ag,56.1831,49.536,-6.6471
YMnIr2F,46.2392,42.3832,-3.8559
Ho2Co2Ir,1.7521,8.8797,7.1275
CuTcAg2,41.1157,35.5411,-5.5745
BaPt3Br,56.8251,38.5942,-18.231
TaNbMo4,39.7293,39.062,-0.6673
LiZn17Hg,7.3412,7.6923,0.3511
Co2TcRh,32.7477,29.9578,-2.7899
NpPaB12,10.0569,11.9826,1.9256
NdSmB12,3.6556,5.4372,1.7816
Hf2Zr2Co,89.1386,67.0425,-22.0961
Tm2TlRh3,42.5011,36.2526,-6.2485
CaYInIr,28.6956,25.6297,-3.0659
Y2TaCoMo,51.4427,39.1403,-12.3024
BaPtBr2,28.5463,21.6187,-6.9276
Ac3Te2Rh,47.6576,50.215,2.5574
Ga3OsRu,18.5402,19.2023,0.6621
UPaB12,9.9522,11.9227,1.9705
Zr2Nb2Co,88.4655,72.0628,-16.4028
Sn2SbAs,24.2785,23.1586,-1.1199
ReRh2W,35.4141,34.8592,-0.5549
NdUB12,6.8648,8.6683,1.8035
AcB12Pb,8.7397,10.3675,1.6278
NdYCoRu,34.3337,32.2411,-2.0926
Tb6Cd3Os2Rh,28.763,30.1961,1.433
NaYPbBr6,15.7942,14.5525,-1.2416
Ac2Pm(H4Pd)3,11.2672,12.5528,1.2856
PrSmB12,1.5489,3.3055,1.7565
YCo2RhF,33.1665,25.5258,-7.6407
NbCrB,22.8828,23.5978,0.715
HgTeRhI2,27.5471,23.7858,-3.7612
NaCuAs2Se,32.8893,29.5302,-3.3591
BaAcScS4,39.6991,33.2626,-6.4365
NbRu4W,50.4421,41.5006,-8.9414
La2ThCo2,29.6422,25.9145,-3.7277
NaTl2(CuI3)2,24.7737,25.0617,0.2879
Hf2NbB,107.8159,82.5909,-25.2249
HoU2NbN4,37.4452,36.629,-0.8162
NdY2Hg,31.3365,26.1382,-5.1983
Pr2AsI,4.5578,7.8059,3.2481
Ho3In3Rh2Au,31.4441,29.7556,-1.6885
SrPBr,11.8454,12.4692,0.6238
BaScBS2,32.4788,27.6238,-4.8551
NbTcSn4,46.761,41.7078,-5.0532
Ga2HgTe,12.2643,13.067,0.8028
La2ThUN4,28.7015,26.867,-1.8345
KLaCr2,22.6086,18.1131,-4.4955
RbSrB12,1.4594,2.9259,1.4664
Tm2ZrNbH,60.3133,51.6586,-8.6547
Tb6Pm3Y2Er,24.2671,26.1128,1.8457
NaCrReOs2,33.5153,34.1719,0.6566
Rb2TcSeI6,27.8078,25.6536,-2.1542
Tb5(YEr)2,24.5144,26.9178,2.4034
NbReW4,55.8338,56.5773,0.7434
HoAlCd,16.4533,18.7517,2.2984
Tb2(YEr)3,22.9935,24.9333,1.9399
SrTmPd,20.1505,22.4096,2.2591
Pm5Y5Er,20.5503,22.3251,1.7748
Pm7Y2Er3,24.1797,26.6353,2.4556
SnPbF2,24.5978,25.5812,0.9833
Li3AgI,10.9525,10.2376,-0.7149
LiYCo2C,34.5671,26.7006,-7.8665
TbTaCuO5,0.0,4.3368,4.3368
ZrNbHgI,65.7049,54.5327,-11.1721
Cu2Ni2Os,9.3769,12.6413,3.2644
CuNi2,1.2429,5.8654,4.6225
HgOsI2,19.5138,21.0552,1.5415
Sr2InRu2,15.8193,17.5263,1.707
Pm4Y3Er4,23.6145,25.2932,1.6786
BaMnI2,32.1374,28.0788,-4.0587
K3(Tl2Pb)2,35.8733,36.2624,0.3891
Sc2Cd2S,23.6949,23.577,-0.1179
TaCu2Pb,28.0251,29.1482,1.1231
PrScB12,0.2499,1.9397,1.6897
Cd2Tc2Ag,47.1634,42.8824,-4.281
PmYEr4,21.1238,24.5085,3.3847
Ba2Nb2Sb,62.6961,51.023,-11.6731
Al2SiTe,26.2367,22.7834,-3.4533
Pu(PaCo)2,33.8796,40.2693,6.3897
Zr8Ti,88.9196,69.5904,-19.3292
SrSc2Sn,19.3775,17.8366,-1.5409
ZrV2As,83.9562,68.0687,-15.8875
Nd4TlPt,23.8725,23.3305,-0.542
Sn(RuBr)2,19.433,16.3163,-3.1166
Pr2SmTh,20.4378,22.9476,2.5099
Pr(AgSn)6,24.3985,21.7522,-2.6463
Al2SiTe,25.9451,22.7834,-3.1617
CuBi2Mo,40.6419,36.6623,-3.9796
Li2Er2ScPb2,24.3871,26.3571,1.9701
CrTeAu,33.0489,32.891,-0.1579
Nb4Ga2B,85.9039,70.3807,-15.5231
MnCuP,42.749,35.1313,-7.6177
Pm4Y2Er,17.5975,21.2472,3.6497
SmHoB12,3.9628,5.7047,1.7419
Pm3(YEr2)4,24.7053,25.7615,1.0562
PmY3Er4,17.6836,20.5353,2.8517
Nd4PtPb,34.1356,32.4882,-1.6475
Li2MnCu,27.0513,23.1838,-3.8675
B(Ir3Pb)2,40.9477,42.7357,1.7879
LiMn2Cu,46.6153,39.515,-7.1003
Nd2Co2Ru,0.0,2.7029,2.7029
AcNd4Tm,32.8865,34.9255,2.039
Sm2Co2Ru,0.0,2.6663,2.6663
LuPaCrTc,50.6752,49.9702,-0.7051
SbTe2MoPd,36.0513,30.3199,-5.7314
LuPaFeTc,57.4539,53.1932,-4.2607
SbTe2PPd,31.2656,27.6249,-3.6407
GaSbTe2Pd,33.7456,29.5656,-4.1801
ReSb2TePd,39.2393,34.5428,-4.6965
CrSbTe2Pd,32.6564,28.0769,-4.5795
Ca3HCl,4.0372,4.2344,0.1972
ZnInSi,15.4175,15.6298,0.2122
NbB2C,45.4168,36.6588,-8.758
CsK3Ni,13.7161,13.2012,-0.5148
Sm6YTm12,28.1132,29.1619,1.0487
SrAuS2,38.7879,33.1813,-5.6067
In2Sb2Cl,23.5304,20.7047,-2.8258
Zn2CdSn2,13.1931,14.6788,1.4857
Hf(CoSn)2,32.46,27.3623,-5.0977
UNbB2,52.7924,50.1942,-2.5982
IrRuIN2,38.869,35.3148,-3.5542
PrAlGa2Pd5,14.086,13.9441,-0.1418
Cs2Rb3UO6,8.7656,10.4169,1.6513
Tb15Y4Er,24.2033,25.8718,1.6684
MnCrNi2,59.8254,54.7217,-5.1037
Ac2(LaSm)3,44.9203,39.2946,-5.6258
Sc2GePd3,22.3134,18.9826,-3.3308
NdSmTh4,52.3692,55.3626,2.9934
Hf2Tl2O7,26.4331,20.24,-6.1932
Al3Ag,6.555,7.8167,1.2617
Mn2CrNi,79.046,67.4526,-11.5934
TiNbB2,36.5045,34.54,-1.9645
AcLa4Sm7,37.443,32.5039,-4.939
K2YbI6,20.9111,21.7005,0.7894
La(ScS2)2,43.3152,35.2732,-8.042
NdSm4Tl,29.1495,31.9968,2.8474
NbBW2,55.1598,53.405,-1.7548
InCN,37.8434,31.376,-6.4674
LiLaPrRe,22.0139,20.0998,-1.9141
CaSbP,35.3037,28.6847,-6.619
NdMnI,42.7062,39.9633,-2.7429
K(TcPt)2,68.9207,54.0619,-14.8587
Dy2TmRh3,37.8671,31.9747,-5.8924
SrNdB12,2.8269,4.8684,2.0415
NbBP,24.4513,24.6028,0.1515
Li2Sc2H5,1.6378,1.8667,0.2289
Nd3Er2Tm3,28.1664,29.5052,1.3388
CaHCl2,0.0,0.8269,0.8269
GePtN2,26.6464,23.6431,-3.0032
LaHfZr,98.0428,72.7604,-25.2824
Tb2Co2Tc,24.5841,27.5774,2.9933
YCoAgSe2,45.4728,35.8209,-9.6519
TbPuB12,7.2149,8.9557,1.7408
TlSb2C,51.821,42.0694,-9.7517
ZnCrW2N,29.5873,29.0732,-0.5141
Y2NpBi3,22.6359,29.0786,6.4427
TlSbC,48.0692,40.8016,-7.2676
Sc2CrGe4,21.9987,16.7925,-5.2062
Ce6P3S2Br,22.6755,24.1562,1.4807
CeY2Ag3,24.1972,22.8494,-1.3478
CaTb2YHg4,12.9627,12.5245,-0.4382
AlTeBr3,16.0173,15.9437,-0.0736
CrPt2W,56.3855,44.2109,-12.1746
SiTc3N,60.947,50.8181,-10.1289
Tm2ThCo2,27.6311,30.9739,3.3428
Y2ThAu3,38.5386,40.3202,1.7816
AlTe2Br,24.6777,23.5083,-1.1694
LuThN,32.7505,35.7147,2.9643
PaSb2Pt,54.4487,45.3948,-9.054
Ir4Rh7,47.0387,39.3958,-7.6429
NiPtAu2,43.7544,40.2798,-3.4745
EuAl4Pb,15.3586,16.9765,1.6179
ZrSiSb,46.367,35.8032,-10.5638
LiCrAu,4.6159,6.6982,2.0824
NaNi2Rh,18.0156,16.0402,-1.9754
NbGaB3,35.3952,28.7643,-6.6309
BeCu2Ag,15.511,13.2432,-2.2678
Li2CrAu2,16.8173,17.7724,0.9551
Y2Tm2Ir3,30.6015,33.2133,2.6119
Ce2TmGa3Pd4,20.0812,20.6064,0.5252
CoRhW2N,69.8671,62.379,-7.4881
SrHgS2,20.1718,15.2344,-4.9374
SrTlB12,5.0659,6.6578,1.592
Mn2TcGeN,60.1938,50.2242,-9.9697
SrSnB12,2.8785,4.4976,1.6192
Sr2SbPb,27.3966,27.7258,0.3292
CaTiCr2,23.0486,18.7268,-4.3219
SrNdGa2Pd5,17.6542,18.3515,0.6973
BeNb3B,86.0888,70.9346,-15.1542
Bi2Sb2Pd,39.8963,36.3205,-3.5758
Tl2SbBr4,31.3944,30.4766,-0.9177
Cr2TcNi2,33.7472,32.2311,-1.5161
NaYHgSb,29.5213,23.8644,-5.6568
La3Pm4,36.3336,29.9803,-6.3533
MnAg2HgF6,16.2162,13.0497,-3.1665
SrTmB12,3.3149,5.0138,1.6989
ZrTcRu2,55.8743,50.6621,-5.2122
AlCu3N,13.6512,11.2072,-2.444
Nd4NiBi2,30.0437,31.9701,1.9264
BaSr2Pd,8.175,11.0601,2.8851
Al2Te2Pb,28.4969,28.229,-0.2678
Tm2GaN,10.3717,17.0444,6.6727
SrUB12,6.0831,7.8338,1.7507
Re2Mo5,25.9115,25.9982,0.0867
CrTc3N,66.9209,56.2698,-10.6511
Nb3PbBr,104.7118,85.3334,-19.3784
Ac4PmNd,51.3703,54.2359,2.8655
Be5(Nb2B)2,51.2933,43.2078,-8.0854
EuThN,31.0179,34.0288,3.011
ThUB12,9.8064,11.6363,1.8299
Na2TaGa,45.3804,36.5457,-8.8347
Sr2MnBr,32.653,28.5583,-4.0946
PmSc4PbS8,48.7684,42.1546,-6.6138
PrPuIn2,26.4736,29.0483,2.5747
Cu2RhN,11.678,14.9556,3.2776
LuRh2Pb,45.4706,39.6065,-5.8641
Cu2TeAs,12.5874,13.9981,1.4107
HfPRh,64.4417,48.1582,-16.2835
ErTm2PaFe2,31.7758,29.7901,-1.9858
Mn2Fe5,28.4638,23.8966,-4.5672
SrTmMg17,4.6067,5.6108,1.0041
SrYMg17,4.1686,4.7244,0.5558
LiCr2Au,11.8211,13.2923,1.4711
Ba(YHf)2,76.4955,58.6383,-17.8571
NbFeB2,35.9512,32.9843,-2.9669
Tc2WN4,33.2083,30.2016,-3.0067
PmTiB12,2.531,4.1709,1.6399
Ag2SnSb,29.0353,27.065,-1.9703
NdTiB12,2.5174,4.1455,1.6281
Na(ZnRu)2,10.3986,13.1609,2.7623
Y2NbOs3,50.1852,47.0776,-3.1076
Ni2PtAu,37.378,33.8202,-3.5577
Ho6In2HC,26.5733,25.8534,-0.7199
Ce(ZnCo)2,21.4195,14.7204,-6.6991
BeInN2,22.2823,20.2922,-1.9901
AcTlB12,8.602,10.3456,1.7435
LiAc2HgN,22.855,26.9035,4.0485
AlTc2IN,47.328,39.0573,-8.2707
YTaCo2Se,55.3626,41.952,-13.4106
CsRb3Ni,7.6626,7.375,-0.2876
TbNd3Y2,17.2092,21.646,4.4368
TmMgCd17,18.9024,19.4354,0.533
TcAu2N,42.4732,44.4511,1.9779
SmZrB12,9.1442,9.0681,-0.0761
CrW2I,28.3633,30.7728,2.4096
PaSn,43.8948,48.1665,4.2717
MnBeAg2,41.4404,34.1571,-7.2833
NaScB12,4.2513,3.6616,-0.5898
LiYTcSn2,58.207,51.1376,-7.0694
CsRbGa12,9.0657,9.5244,0.4587
LaTi2Cr,23.8396,20.8321,-3.0075
Y6Mg23,5.6704,5.8476,0.1772
Pm2Y3ErTe6,29.7786,29.2867,-0.4919
SrPaSn2,30.2316,33.1899,2.9582
Ti2CuPb2,19.5482,22.4752,2.927
CsBeN2,30.0778,26.0618,-4.016
NaLiB12,4.0906,3.2219,-0.8686
MgZrNi17,10.7801,11.4747,0.6946
LiAcB12,4.8891,6.4644,1.5753
KTiBi2,27.4514,29.6947,2.2433
RbBaHg12,0.0168,0.0798,0.0631
YPaMn17,93.1947,76.0965,-17.0982
MgZrZn17,12.2025,11.5019,-0.7005
NdY2Pd3,22.0248,21.2479,-0.7769
ErUMn17,94.1099,77.1249,-16.9851
HoMn17Co,91.0689,73.5317,-17.5371
CePaMn17,93.7884,76.6553,-17.1331
YZrTe2I,43.5875,38.2944,-5.2931
Sr2TaPd2,21.0343,18.4478,-2.5865
PtAu2N,43.3697,40.7277,-2.642
LaCr3,14.058,12.3542,-1.7038
TbCeMn17,91.6519,74.5467,-17.1053
Y2TmPd3,22.9342,22.2193,-0.7149
Th(ZnCo)2,29.5884,23.0583,-6.5302
Hg5Pd,2.6918,3.3216,0.6298
Co2AsBr,14.1974,11.6162,-2.5812
PmY2Ho3,17.6603,21.5839,3.9236
LaNdCo4,16.777,16.5189,-0.2581
Cu3(NiRh2)2,25.5141,20.0524,-5.4618
CoAs3Br,15.9602,13.6976,-2.2626
LiYSn3,23.8464,20.5083,-3.338
Cu(NiRh)2,17.8623,15.5428,-2.3195
SrP2Br,10.3943,10.755,0.3607
CsRb2U2O7,11.6699,12.7487,1.0788
LiTl2V2O6,38.0128,31.9202,-6.0926
YbGaIr2,32.2571,35.4638,3.2067
Cu7(NiRh)2,14.5046,13.0558,-1.4487
CrNiPt2,52.6914,40.3861,-12.3053
HfTe2Ir,67.9171,57.8294,-10.0877
HfCd2Ir,51.8196,46.1395,-5.68
HoNpMn17,94.1476,77.0993,-17.0483
AcTb3Dy7,30.7552,32.0258,1.2706
Cu2TcSb,38.3259,33.8971,-4.4287
SrBeW2,34.9878,28.727,-6.2608
Tb2YEr,24.1093,27.1398,3.0304
Y2ErRh3,25.7109,21.0134,-4.6975
SrAl2Au3,22.6274,24.8155,2.1881
NaYInHg,23.4309,20.3218,-3.1091
SmPuTe3Rh,37.4543,35.7693,-1.685
Cs(SrIn)2,15.8845,17.5291,1.6447
Y2PaSb3,17.2199,17.142,-0.078
SrBeW2,35.3692,28.727,-6.6422
SrBeW2,35.0637,28.727,-6.3367
TbY2Ir3,30.1269,32.6781,2.5512
Cu3W,9.2004,13.2344,4.034
Dy(ThNi)2,27.5035,32.7581,5.2546
SrSmTm,23.196,25.7265,2.5305
SrBeW2,35.4529,28.727,-6.7259
Sr6Re2N6O,43.7677,41.4408,-2.3269
ScPSe,28.0056,21.1591,-6.8465
TmPS,11.472,18.0348,6.5629
CdInIr2,31.5976,34.7244,3.1268
Gd2ScAg,23.6511,24.4121,0.761
Sm5ThSb4,36.3343,34.0072,-2.3271
Nb(B2W)2,32.6365,31.6425,-0.994
Tl2InAg2,37.0458,35.205,-1.8408
NiPtI4,31.295,27.3916,-3.9034
KScC,27.184,22.0296,-5.1544
MnTl2CoPb,54.1862,49.3824,-4.8038
Np(CuAs)2,13.9659,17.488,3.5221
Fe3NiSe,29.4366,22.2369,-7.1998
TlInAg2,33.4228,31.0232,-2.3996
TmHfSe2,66.7036,53.2066,-13.4971
Tl(CuAs)2,12.9698,14.6037,1.6339
NiP2,10.7102,10.6242,-0.086
PmAlNi5Ge2,14.7861,13.9028,-0.8833
Tl2IrOs,43.0303,47.4917,4.4614
NaSrSn,19.2374,18.8809,-0.3565
Pm4PrZn4,10.3945,13.5171,3.1226
Hf5BiSb,108.6127,80.1107,-28.5021
Sr2TlS2,32.617,28.1209,-4.4961
YSiNiN,39.5068,33.6463,-5.8605
SrCu2S,16.7792,14.4699,-2.3093
SrBeW2,35.1958,28.727,-6.4688
AlBiTe2I,35.168,32.3989,-2.7691
Y2TlPb3,38.9967,40.627,1.6303
ScTiCdS2,36.2837,31.0515,-5.2322
Nd2Cu2Br,16.772,17.5956,0.8235
PmPdPb2,36.6245,39.2641,2.6396
Th2Pd2O7,16.3594,16.3716,0.0122
BeMoAs2Br,13.7647,12.0598,-1.705
VGa3Si,34.4817,27.5627,-6.919
ZrCdPb3,55.4009,51.8376,-3.5633
K2SrI,14.527,14.7479,0.2209
Cd2Cu2Sn,29.9218,27.4563,-2.4655
Fe2PIr,27.8063,29.5343,1.728
ScTi2GaS,24.1542,23.5552,-0.5991