Formula,E_hull_DFT (eV/atom),E_hull_ML (eV/atom),Delta (ML - DFT)
TiReN2,64.562,59.5846,-4.9774
AlSi2Br,21.3189,16.2725,-5.0464
SiAgBr2,17.5391,13.7953,-3.7438
CoSb2TeCl,29.6165,24.3054,-5.3111
Li2NbRu,40.1644,35.6475,-4.5169
Nd4P3,14.3236,18.6049,4.2813
LaIr2Rh,46.7161,41.0279,-5.6882
AlAgBr2,14.1903,12.5529,-1.6374
TaPt2I,53.755,44.349,-9.4059
Al2SiBr,18.3438,15.4074,-2.9364
LaHgMo4,19.1945,19.4116,0.2172
ScIr,16.6555,7.3404,-9.3151
SiAgBr2,17.6636,13.7953,-3.8684
SiAgBr2,17.8996,13.7953,-4.1043
NaAlBr2,12.0919,12.1338,0.0419
CdMoBr2,14.4417,16.6115,2.1698
ZnO2,22.1303,16.4291,-5.7011
Te2IrI,38.3577,37.8958,-0.4619
Na(AgBr2)2,18.9344,15.8868,-3.0476
Al2AgBr,12.4718,11.412,-1.0598
YMg2HgO,18.1023,16.4411,-1.6612
Na2NbBiO5,19.6244,17.9847,-1.6397
ZnAs3O,20.3828,16.3093,-4.0736
Co2SCl,18.8125,16.2072,-2.6053
Tl2SbIr,48.0626,46.9505,-1.1121
NaLiRe2,21.5236,24.0669,2.5434
Al2AgBr,12.378,11.412,-0.966
NaScTi,14.2679,17.4559,3.188
Rb2AlP2,17.6594,12.5015,-5.158
BiSbTe2C,49.7279,42.3846,-7.3434
CeLuZrSc,40.6246,38.8778,-1.7467
Eu2ZnPt,37.8959,32.0764,-5.8195
Sc2BiAu,22.2392,26.7554,4.5162
DyEr2Cd,26.178,28.9573,2.7793
CaY,0.0,14.4231,14.4231
Mn2AsO,76.0712,63.3323,-12.739
GdZn2Sb,22.1565,21.4213,-0.7352
SnSbPb2,42.7847,41.4199,-1.3649
VCo,26.8924,28.5549,1.6625
TaInCo2,38.3412,30.4323,-7.9088
CeGdSb,32.6145,31.26,-1.3546
Ce6Al2Sb,21.9931,23.0665,1.0735
CaWN3,17.8765,17.6591,-0.2175
ZrScCr,48.6765,40.3146,-8.3618
NaNiO2,0.0,0.0,0.0
Nd2Th3Tc2,61.8955,59.5699,-2.3256
MnZn2As,31.3325,26.4553,-4.8772
Er5Fe2Bi,19.2491,22.7088,3.4597
LiPrSm,3.6082,7.4748,3.8666
Sr3(AcIr)2,41.345,38.4685,-2.8765
PtAuBr2,41.8245,34.7762,-7.0484
CaAs,7.2157,9.9754,2.7597
Tb(Sm3Al)2,20.1482,22.4765,2.3283
Er5Fe2Sb,22.846,23.7481,0.9022
AcEr5Tm2,20.8162,25.1268,4.3106
Zn2Sn2I,13.8126,15.2373,1.4247
Er5GaFe2,17.0211,18.7389,1.7178
Ti2SnPb2,29.2591,28.0591,-1.2
LiY(MgHg2)2,7.8302,6.4702,-1.36
Sm6TmAl2,20.5989,22.928,2.3291
Tl(InAs)2,22.1417,23.2359,1.0942
InReAs,23.7939,27.3951,3.6013
CaMnAs,37.8351,31.827,-6.0081
YMgHgPd,18.1324,15.3587,-2.7737
YMgReHg2,19.3201,17.4664,-1.8536
Mn2As,62.3642,48.4248,-13.9394
YMg2ScHg4,7.2518,6.487,-0.7649
MgU,29.6129,36.104,6.4911
Na2NpOsO5,10.0067,12.9412,2.9344
CsCaGa3,11.2804,11.9588,0.6784
CsCa3Ga,9.5336,10.4038,0.8703
AcHPt3,66.1364,50.4386,-15.6979
Er(InPt4)3,72.148,51.805,-20.343
HfTcAu2,82.804,69.2408,-13.5633
Er5InAu2,27.4865,30.7938,3.3073
ZnSbMo2,21.1473,20.9178,-0.2294
Nd2ZnI,19.4711,21.458,1.9869
CaZn,7.4472,1.8978,-5.5494
Ti6Al2Pb,11.5045,12.6021,1.0976
CeScPb,27.3702,30.1566,2.7865
Na5ZrS5,44.8382,33.7311,-11.107
Tm6Al2Pb,22.1214,25.5585,3.4371
CaZrSn2Pb,40.1228,37.1083,-3.0145
TcIr4Rh,52.5605,50.5873,-1.9732
SrScSb,18.2263,17.2048,-1.0215
Ce6Bi3N,24.5504,27.3797,2.8293
Y2GaRu,17.752,16.2356,-1.5165
Cs2HgAu2,26.3175,27.2012,0.8837
Na3U(NiSe3)2,36.2478,31.1437,-5.1041
ZrCdW2,49.0152,48.9895,-0.0257
Cd(TcSe)2,61.0335,49.8803,-11.1532
AlCl2,3.0824,4.7415,1.6591
NaSn2Pt,34.1295,27.5297,-6.5997
Ta2ZnSe,32.3012,34.5098,2.2086
SbRuPb,38.0233,36.7112,-1.3121
Na3Nd2TmTe6,32.5678,31.2469,-1.3208
SrSn3B,15.5257,16.5031,0.9774
BaZn(SnS3)2,33.8661,25.1215,-8.7447
Li4YHg2,6.7504,5.3517,-1.3987
HgPbW2,33.2405,36.1143,2.8738
K5Sr3Br12,1.9057,1.9331,0.0274
ZrCdW2,48.7566,48.9895,0.2329
CaYMgHg,14.2949,12.0968,-2.1982
RuN,16.896,16.6929,-0.2031
AlCO2,15.8837,13.7916,-2.0921
RuAu2I,37.0344,36.0131,-1.0214
CdTc2Se,63.6137,53.3587,-10.255
BaMnSi2Pb,36.655,29.4819,-7.1731
YHf2F11,19.107,14.6792,-4.4279
YMgSnHg,19.7248,16.0224,-3.7024
AcH4Pt,20.7018,18.7619,-1.9399
Ca2ScTe,17.4188,15.1684,-2.2504
Cr3(SeS)2,33.2166,25.7345,-7.4821
TcOs4Rh,51.4787,49.8057,-1.673
FeH6Ru,11.3504,8.6878,-2.6626
PIrBr,29.3282,25.8779,-3.4502
NpNi2F11,6.2457,7.3655,1.1198
HfTiH,49.5257,37.426,-12.0997
Th2MnF11,13.6593,14.2836,0.6243
YMo2F11,5.9873,4.9807,-1.0066
Th2ScAl6,17.5419,19.2981,1.7562
TlInAs2,22.9495,23.9441,0.9946
Tc2Ru3Pt2,59.0361,48.5885,-10.4476
Li2TcPb,36.9489,33.8521,-3.0968
PaInRu,26.448,31.0392,4.5912
TlInAs2,22.9194,23.9441,1.0247
Sm3(SeS)2,38.7555,33.1742,-5.5813
Ni2AgSbP,26.2166,20.7775,-5.4391
Y2MgHg,25.8322,19.5097,-6.3225
Na2PaPbO5,17.328,17.047,-0.281
LiAl2O,12.7074,14.2829,1.5756
Cs(KHg)2,8.539,8.5104,-0.0286
TcTe4Rh,46.061,41.0179,-5.0431
Sm2AuO2,17.9632,19.1011,1.138
TaCrIn,56.0435,42.2127,-13.8308
Re2NiOsRh,52.8281,41.6352,-11.1929
AcH2Pt,37.8322,33.0545,-4.7777
Zr(TlCu)2,38.7618,37.2464,-1.5154
Pr3(TeS)2,24.5662,20.8636,-3.7026
CaMoN3,0.0,0.0,0.0
Sm5PS4,33.961,30.4779,-3.4831
Ca2InOs,18.179,20.1601,1.981
Tb3(TeS)2,38.0134,34.3069,-3.7064
CaInOs2,27.759,27.599,-0.16
Ce2NdAl6,10.2209,12.1645,1.9436
Hf2TlCrAu,79.6445,62.2909,-17.3536
SrTePd2,17.7244,20.5194,2.795
Ca2InOs,18.0877,20.1601,2.0724
ScCd2Tc,71.7535,60.7814,-10.9721
Ce(PmAl3)2,9.8095,12.1577,2.3481
Tb(CeAl3)2,10.0441,12.3873,2.3432
NaSmSn,23.1323,23.2421,0.1098
Tm2SnO2,52.0035,44.0355,-7.9681
PrMnPt4,74.7959,53.198,-21.598
LaSbOs,46.4265,39.376,-7.0505
TiPb3F,34.2397,35.0939,0.8543
ZnInPbO4,18.0338,17.1578,-0.8761
Ba2Au2S3,36.7353,30.7751,-5.9602
LaOs2Rh,46.4744,41.2568,-5.2176
CuSn2P,31.4916,29.1685,-2.3231
Pr6Sn2Ir,0.2024,3.1328,2.9304
ZnGeOsO2,23.8972,20.5185,-3.3787
AlClF2,19.3829,16.8159,-2.567
ScCd2Tc,71.7693,60.7814,-10.9879
ZnOs2O,38.4347,35.6398,-2.7949
CuSn2P3,24.8395,23.1602,-1.6793
TlTc2Te,70.5223,62.0673,-8.455
Ga(SiAg)2,20.4527,15.088,-5.3647
NaTmGaSn,20.8222,21.4441,0.6218
AgBiPtRh,56.19,44.91,-11.28
K(BaGe)2,2.8295,4.9731,2.1436
GaSiAg,14.7862,11.7593,-3.0268
HfScS2N,50.4533,39.1246,-11.3287
ZnMoOs,27.1133,26.284,-0.8294
Y3NiHg3Pd2,39.7511,33.3441,-6.407
TlIn2As,25.2472,26.4256,1.1784
LiCl,5.1489,4.5526,-0.5964
Y2Mg2Hg,21.0821,16.4939,-4.5882
Ba(YHg)2,28.9541,23.477,-5.4771
NaSn2Mo,32.4432,24.389,-8.0542
CaZn3,8.3492,7.9605,-0.3887
Tl2InAs,33.0105,34.1489,1.1384
Na2Sn4Pt5,52.2859,39.0473,-13.2385
Na2PuPtO5,16.039,14.5992,-1.4398
YMgHg6,6.6279,5.2354,-1.3925
NaSmTmSn,25.0021,25.8816,0.8795
Tc2TeW,67.1077,59.9255,-7.1822
PuSbAs2,33.9209,32.675,-1.2459
Na3HfSn,49.0365,36.6991,-12.3375
Tl2In2S3,44.2303,37.9406,-6.2897
NaTmSn2,23.8035,24.3388,0.5353
ScSe2I,30.9043,27.5321,-3.3722
NaSn4Bi,27.0646,26.8083,-0.2563
Y3MgHg4,18.8589,14.2239,-4.6351
NaSnBr3,15.116,14.4544,-0.6616
Na2SnBr,20.1224,18.1809,-1.9415
Na2SnMo,34.4387,25.6309,-8.8078
LaZrBr2,42.5619,34.2033,-8.3585
LaZr2Br,64.9067,54.0629,-10.8438
Gd2SiI,23.2023,23.8543,0.652
Cs2KNpOF5,14.819,16.0038,1.1848
PRuSe,16.1331,17.7278,1.5946
LaZr2Br,65.0388,54.0629,-10.9758
LaZrBr,54.4873,42.8236,-11.6637
NaNbSn3,46.9868,40.861,-6.1258
Nb(GaI)2,37.9944,33.1708,-4.8236
YGa2Ru2C,27.7642,23.7079,-4.0563
NaTa2Sn,30.5441,32.3223,1.7782
Ca2NdYHg4,7.4269,7.3278,-0.0991
Na2SnBr2,15.247,13.979,-1.2681
CdNi2,3.7377,5.6667,1.929
Na3SnTe,27.4568,24.0116,-3.4451
LaZrPb,67.4493,58.4221,-9.0271
La2ZrBr,52.9797,41.0364,-11.9433
AlC,13.2079,11.364,-1.8439
Tl3SbRu,44.0222,42.1632,-1.859
NaCd2GePt,32.2269,26.1605,-6.0663
Na3(SnAs2)2,17.032,16.371,-0.661
LaZrPb2,63.6168,56.08,-7.5368
Cr2SiAg,16.4631,13.0887,-3.3744
La2ZrPb,63.4359,51.4159,-12.02
LaZrBr,53.7407,42.8236,-10.9171
ZrMoF3,27.7768,23.6423,-4.1345
Li2Al,2.5245,3.6539,1.1295
CeYHgOs,28.9718,27.7756,-1.1962
LaZrPb2,63.4742,56.08,-7.3943
NdLuRu,24.5591,28.09,3.5309
NaAgSe2Br,32.7069,26.3147,-6.3922
NaSn2Pb,26.2065,27.1772,0.9707
IrOsI2,34.3981,35.9073,1.5091
Na2CuSn,41.9842,35.0029,-6.9813
Y4HgTe5,32.8441,29.846,-2.9981
NaTl2InI,33.8091,33.2553,-0.5539
InRu5I2,25.2062,23.6281,-1.5781
ZrReTc2,80.8503,70.5621,-10.2882
LaZrPb2,63.5871,56.08,-7.5071
KSb3Rh,39.1793,29.7157,-9.4637
DyFeB,9.1352,12.6027,3.4675
Li2TaMo,13.5999,16.3656,2.7657
LaZrBr2,42.63,34.2033,-8.4266
Na5(CdSn)3,22.0934,20.086,-2.0075
SrPmSm2,22.3038,24.8124,2.5086
Li2Cl,3.2886,4.8353,1.5467
LaCo2Ir,27.0365,25.206,-1.8306
Pr3URu4,35.4674,33.6146,-1.8527
NaSn3C,31.4108,26.4689,-4.9419
ZrReNi6,10.3241,7.029,-3.2951
AcTiSb2,39.5141,35.9973,-3.5169
TlNi6Rh,1.0223,3.7579,2.7356
Ni6AgRh,0.0,0.1523,0.1523
ZrNi6Mo,6.6968,7.0858,0.389
TaSiSe,33.5811,31.1801,-2.401
TlInNi6,0.0,3.1052,3.1052
Ni6OsRu,0.0,0.0,0.0
Ni6HgMo,0.0,0.1712,0.1712
SrYNi6,12.8812,11.5499,-1.3313
Ni6HgIr,0.0,0.0,0.0
KN2F11,4.7203,4.5056,-0.2147
Na2SnBi2,32.6726,32.2967,-0.3759
MoRh2Pb,41.57,36.3708,-5.1992
NaU2Br11,15.1521,15.4427,0.2906
Cr2SiAg,16.4425,13.0887,-3.3538
Cr2SiAg,16.648,13.0887,-3.5593
OsRuCl3,15.3947,15.8517,0.457
Na3SnN,26.5908,20.9726,-5.6182
Tc3RuC,75.7877,60.9001,-14.8876
Sc3PaP4,43.5709,35.6036,-7.9673
HfNb2Hg,106.7286,84.2327,-22.496
Zr2BeSbMo,54.7952,43.876,-10.9193
SrSbRh2,38.5768,29.9089,-8.6679
CeSnPd3,16.2854,16.9956,0.7101
Dy2ThAl6,14.9576,17.5275,2.5699
Cr2SiAs,21.1117,18.0876,-3.0241
Ge2(PbAu2)3,41.8147,42.8342,1.0195
NaSnRu2,19.8417,20.993,1.1513
Nd2Sm7Y3,22.2591,24.2663,2.0072
U4TcRu,63.7998,64.4095,0.6097
RbCrGa2,0.0,1.1746,1.1746
Cr2SiAu,20.4788,19.6236,-0.8552
Te8WAu2,42.856,41.7539,-1.102
Sr2Cd3AgSn4,21.5739,19.7469,-1.827
Cr2SiAu,20.3362,19.6236,-0.7126
Ac2Al4InHg3,15.7635,17.029,1.2656
TeWAu2,44.3564,45.4582,1.1018
ScCl3,14.3325,16.1151,1.7826
NaHfSn2,48.3091,38.7684,-9.5408
TeWAu2,44.3208,45.4582,1.1374
SiIrN,0.772,2.6825,1.9104
CsNaSnSb2,28.4448,24.8458,-3.599
NaSn2SbIr,31.5625,29.062,-2.5005
NaTiSn2Sb,31.2802,24.482,-6.7982
PmNdSb2,33.9243,31.3032,-2.6211
EuScTl,27.8952,29.8884,1.9932
Al2OsSe,24.0587,23.8174,-0.2413
Pb2Br2O,32.5017,27.0291,-5.4726
LiPm(MgPd2)2,12.0241,14.3031,2.279
Sm4TcAu,33.9995,35.3218,1.3224
Sm6Hg3N,11.3097,12.9141,1.6044
NaYHgAu2,34.2452,30.7213,-3.5239
DyPa3(MnN3)4,31.2588,28.1578,-3.1009
I2(OF2)3,10.1097,9.5659,-0.5438
Cr2SiAu,20.54,19.6236,-0.9163
Be2NiBr,1.7761,4.3779,2.6018
Be3ReTe,17.4668,18.3368,0.8701
Al2OsSe,23.8793,23.8174,-0.0618
BRuPt3,59.2136,42.6648,-16.5488
NaTa2Sn,24.6018,32.3223,7.7205
Be2ReTe,21.014,23.5058,2.4918
BeRe2Te,23.9913,28.2732,4.2819
TaGa2Sb,40.5862,34.4323,-6.1539
Te2IrI,33.9557,37.8958,3.9401
Cr2SiAu,20.4491,19.6236,-0.8255
YNiHg2B,41.3475,34.1608,-7.1868
BaCr2Si,16.9242,13.9216,-3.0026
Hg2PIr,15.8468,14.8788,-0.968
LaPt2Rh,69.4358,48.165,-21.2708
MnFe3I,33.2458,27.6813,-5.5645
NaCdSn3,21.1703,20.843,-0.3273
Ac2SmEu,45.6337,47.4014,1.7677
Rb2Se2S3,38.1707,28.0926,-10.0781
NaCaRu2,0.4604,4.1758,3.7154
Na2SnBr,17.3733,18.1809,0.8076
NaLi2SnRu,13.5556,13.0733,-0.4823
Na2CuSnBr,35.7418,29.81,-5.9318
NaCaSnPb,25.3835,25.24,-0.1436
NaSn3Pb,28.41,27.7146,-0.6954
GeF,-0.0,0.0,0.0
Tb2YErHg2,17.9184,18.1106,0.1922
FeCoAsRu,31.3942,25.9793,-5.4149
Cr2CoNi2,23.6784,19.3638,-4.3146
Tb2PrYHg2,12.2251,12.3937,0.1686
Ac2Cu3Ge4Pt,27.0005,25.5263,-1.4742
Tm2HfCu,52.8683,44.4805,-8.3879
Ac2InSb4Pd3,38.1264,34.4293,-3.6971
Ac(ErGa)2,23.396,26.7531,3.3571
YZnNiHg,43.207,37.9789,-5.2282
AcTlIO,45.0805,45.1283,0.0478
Ac2PuGe3Pt4,57.8047,47.9536,-9.8511
RbZrGa,32.1515,29.7628,-2.3887
CdCo2Ag,16.0244,16.5167,0.4923
Ta2TePt,51.2678,46.9683,-4.2995
Al2Zn2Pb,12.35,14.6215,2.2715
TaTePt2,64.435,51.9663,-12.4687
Sn3HgTe,21.3961,21.0423,-0.3538
Hg2Te2Pb,27.2855,27.3307,0.0452
Ta2SiBr,25.131,28.0975,2.9665
Pr2MnIr9,39.9401,40.7537,0.8136
Mo2PF,16.1683,11.9545,-4.2138
SrGaPb2,31.6176,33.4122,1.7946
Y3Ga3Rh,10.9157,11.523,0.6073
CsSrTa,24.9528,19.363,-5.5897
CsZrTa2,50.693,48.6992,-1.9938
CsYHgSe3,31.1174,25.513,-5.6043
Cr2ReI,14.2943,16.2657,1.9714
Pr3(ReC2)2,35.0145,27.0845,-7.93
NdYHgAu,29.9749,28.1033,-1.8716
K2YC,30.9102,25.7117,-5.1985
AgAs2Os,23.577,23.9346,0.3577
CoTeI2Cl,20.8658,20.8324,-0.0334
YZr4Hg5,44.0534,36.6927,-7.3606
BeOsRh2,35.009,29.8281,-5.1808
Hf3Os5N12,25.2494,14.6026,-10.6468
Pb2OF2,7.8828,12.5892,4.7064
Er4TcTe,24.0615,26.2644,2.2029
Bi2Rh3S2,46.686,36.7736,-9.9124
Tl2InAs,32.9881,34.1489,1.1608
Ac2ScCrSe6,38.7633,34.1319,-4.6314
CaY2Si,26.8142,22.1257,-4.6886
Sb2AsAu,32.8478,29.6724,-3.1754
AgAsOs2,31.9435,33.6252,1.6817
Na2TlInF,24.8758,23.254,-1.6219
CrNi2W,27.4377,26.5438,-0.8939
Na3Np2TlTe6,42.4102,40.7091,-1.7011
TmPu(ScTe2)2,35.9922,34.5782,-1.4139
SbAsAu2,37.4558,36.0178,-1.4381
Cs2RbCeNb2O8,24.259,20.8063,-3.4527
SiTcSb3,49.6828,38.1256,-11.5572
SbAsAu,34.2015,32.6896,-1.5118
Ag2AsOs,29.0438,26.9365,-2.1072
LaFe2Cu,33.7422,26.0348,-7.7074
Sb2AsAu,37.0438,29.6724,-7.3715
NdGaPdPt,36.9787,31.0469,-5.9317
Pt2Se,75.9353,55.856,-20.0792
DyPaNb,71.1449,68.4813,-2.6636
Zn(InI)2,18.5603,18.8141,0.2537
YMg2BeHg,11.2581,9.4001,-1.858
AgBiWC2,79.0501,59.2645,-19.7856
CaY(CdHg2)2,11.2583,10.2959,-0.9624
MoP2WO,71.6251,57.9216,-13.7035
La2Pr2O,30.1156,25.24,-4.8755
Ca4ErTl2,21.5489,22.9449,1.396
Cs2GeSbF6,16.4891,15.6886,-0.8005
Zr3Co3Sn3H,37.0728,33.4279,-3.6449
LiAc2HPt6,66.284,49.6594,-16.6246
YMgHgBi,26.6502,24.5723,-2.0778
Nb2GaI,73.6252,62.7943,-10.8309
La2NdAl6,16.1353,13.6702,-2.4651
NbGaI,52.6376,47.3443,-5.2933
Sc2AgPd2,15.4748,13.6207,-1.8541
SrTcTe,49.3766,43.6434,-5.7331
CoAsSe,41.1728,39.4819,-1.6908
TbScRe4,46.3029,43.8702,-2.4327
Eu2TcPd,41.9267,39.0565,-2.8702
Y2MgHg2,17.3775,13.4801,-3.8974
La(PrAl3)2,7.4112,6.2952,-1.1161
SmY2Hg3,16.876,14.1992,-2.6769
Np3(SeS)2,58.7791,54.7329,-4.0462
InMo3P,23.2164,20.2148,-3.0016
LaY2MgHg4,18.9976,14.2061,-4.7915
AgHgOs2,29.0368,29.9863,0.9496
Pm2NdAl6,10.1416,11.9715,1.8299
CaYHgAu,25.0563,23.1487,-1.9076
Cs7Rb5O6,9.3987,9.9686,0.5699
LiCuO2,12.1713,13.1113,0.94
YNiHg2Rh,43.3847,35.4304,-7.9543
Tc2Ge2Br,37.2436,32.8788,-4.3647
YZnHg2S,22.7855,16.777,-6.0085
SiC,1.832,1.6005,-0.2316
Be2CdPb,20.4247,20.6678,0.2431
MgRhI3,24.1224,21.3391,-2.7833
LiTb2V,45.8229,40.5391,-5.2838
MnTl3Si,54.1048,48.0819,-6.0229
BeCd2Pb,24.0807,24.2255,0.1449
Np2NbAl6,33.1858,32.6513,-0.5345
Cd2FePb2,31.161,31.19,0.0291
PrAsIr,0.0,3.1988,3.1988
IrIBr2,20.0308,24.246,4.2152
Nd2Se2O,20.2277,19.6014,-0.6263
CsYMg2Hg,16.5535,13.9387,-2.6148
BaNdTe4,26.7097,27.6794,0.9696
GdBiRh2,45.0788,39.4669,-5.6119
YMg2HgCl,32.976,30.7187,-2.2573
Ba3AgRu,10.6407,9.4072,-1.2335
NaGdBi,35.888,35.8527,-0.0353
Y(GaRh)3,21.1947,16.1603,-5.0343
Nd(TmAl3)2,11.4576,13.4438,1.9862
Eu2GaBi,29.2917,31.0909,1.7992
AcBiHPt,51.433,46.3941,-5.0389
TlSe2I,40.2453,36.7987,-3.4466
RbLiTe2,23.3188,21.6481,-1.6706
Y4Hg5Pb,25.015,20.1835,-4.8314
RbLiTe2I,23.8689,22.3053,-1.5636
Tb2Er2Tm3,25.0705,28.3099,3.2394
BaCaRe3,37.2005,33.0396,-4.1609
Fe2SnHgPb,22.2906,19.7462,-2.5444
TlTe4Au,44.3932,43.0774,-1.3158
Co2Cu,21.3749,21.0279,-0.347
AcBi(H4Pt)2,24.8491,21.4048,-3.4444
Ce2TaAl6,11.3764,13.5231,2.1467
Ba3HfCr,35.182,25.3162,-9.8658
BeSbCl3,12.3824,9.6497,-2.7327
K2AlTe,17.2053,16.6097,-0.5956
YMgHg3,11.0859,8.1774,-2.9085
FeHg2Pb,19.1988,17.4662,-1.7326
Dy8IrPd2,26.5898,28.6282,2.0384
BaZn2Pb,16.8724,18.2403,1.368
Fe3CI,17.3532,14.1878,-3.1654
BaTlTe4,35.978,35.3405,-0.6374
BaTmTe4,27.8872,28.6969,0.8096
Li2Ca2I,4.5922,5.7611,1.1688
FeNiC,28.8143,18.6369,-10.1774
Si2Ag2As,25.3608,19.1505,-6.2103
ThCd5Ag3,28.4863,26.5838,-1.9025
TaCuSe2,36.0753,32.1618,-3.9135
ZnTe2P,24.2028,24.3846,0.1818
SiAg2As,32.5112,25.793,-6.7181
Er3Al3Cu2Pd,14.6378,15.6219,0.9841
Li(BC)3,38.0676,28.3986,-9.669
Pu(PaAl3)2,24.6886,27.1857,2.4971
CoReC2,55.6025,43.9315,-11.6709
Y2GaHgCl,44.2008,39.1907,-5.0101
EuTlGa,28.8247,30.5435,1.7187
TbYHgPb,31.9501,30.5236,-1.4266
AgAs2Os,23.5384,23.9346,0.3963
Na2AsIr,21.3484,20.5975,-0.7509
LaCeErSn,31.48,29.6034,-1.8766
LiBC,28.7111,23.6302,-5.0809
Na3TiP,21.8379,17.1906,-4.6474
GdScCo2,18.7212,17.7096,-1.0115
TaCuAg2,27.6923,25.2118,-2.4804
CsAcTe4,37.9175,38.802,0.8846
Pr2NdAl6,4.4026,5.542,1.1394
LaTlRh,50.1588,41.7395,-8.4193
Y2TlW,39.477,33.2781,-6.1989
Rb2SrTaI6,21.4314,19.4299,-2.0016
BC,29.6953,44.3654,14.6701
EuPtPb,56.1426,48.4271,-7.7155
Eu2PtPb,49.0467,43.5266,-5.5201
Ta2CuAg,22.5745,26.1149,3.5404
EuPtPb2,48.7184,44.003,-4.7154
TaCuAg2,27.8886,25.2118,-2.6768
Pm2EuBi,33.1556,35.8477,2.6922
Ta2CuAg,29.1053,26.1149,-2.9904
CoSb2Pd,30.6336,25.3766,-5.257
AcErZr2,73.0188,66.2889,-6.7299
LuSnSb2,35.6899,31.6446,-4.0453
KHf2SbP,70.7037,50.9124,-19.7913
KTeW2,27.9375,30.8581,2.9206
Ta2CuSe,33.0652,34.8973,1.832
LaCo2Mo,19.9574,18.9014,-1.056
LaMnN3,23.4921,17.1277,-6.3643
NdGa5PdPt2,33.4458,25.9073,-7.5386
Sb2P2C,28.7283,20.933,-7.7953
Li2NiOs,12.5318,14.7127,2.1809
Gd2CoPt2,53.1418,41.6035,-11.5383
AcAl2H7Pt,14.4611,12.6986,-1.7626
Tb3Sm2Y7,19.0559,20.9091,1.8532
Sc2CrRe,37.2943,29.532,-7.7624
AcHo2As,32.3304,34.8631,2.5327
Li2NiOs,12.451,14.7127,2.2617
Li2NiOs,12.359,14.7127,2.3537
CaBe,11.3005,6.2121,-5.0884
LiTcBr2,38.4889,32.9653,-5.5235
Pa2Os2Pt,61.1341,59.3432,-1.7909
CsBaTmWO6,9.929,11.0207,1.0917
Mn2In4Te,46.4279,39.2134,-7.2145
MnIn2Te,45.5562,39.2805,-6.2758
Li2TcBr,32.4674,27.5697,-4.8977
InPt2,66.1635,47.5703,-18.5932
MnIn3Te,40.4366,35.6154,-4.8212
Rb2TeRh,24.0696,19.4244,-4.6452
MnInTe,53.8955,45.4496,-8.4459
LaRhW2,44.6918,39.902,-4.7897
RuAuCl2,18.7168,20.0272,1.3104
BaBeTc2,49.4132,40.4985,-8.9147
Tb3(ErTm)2,28.5646,31.1063,2.5417
Ta2CuSe,33.1573,34.8973,1.7399
CaBe,0.0,6.2121,6.2121
CdAsPb2,30.6887,32.6684,1.9797
CrCoSi,10.518,9.9316,-0.5864
Cr2SiOs,18.7971,19.1296,0.3325
Sm(HoAl3)2,10.5704,12.8453,2.2749
Hf2AuF2,69.3535,52.8394,-16.5141
HfBiTe4,60.7217,53.1149,-7.6068
GdZrPb2,57.9657,55.6935,-2.2721
HfFeSbTe2,63.0839,49.598,-13.4859
CaBeAs2,13.8047,10.7655,-3.0392
SiAs,33.5977,27.4763,-6.1214
I5N2,16.7686,16.4906,-0.278
Li2TaNi,11.2825,13.4413,2.1588
PrDy2Ir,22.9447,26.7545,3.8098
Ag3Sb5Pb,41.3951,32.9884,-8.4067
CaSiAs2,20.1163,17.4748,-2.6415
Li2NiRh,14.1275,11.7641,-2.3634
Re3(TcRu)2,48.2959,47.3296,-0.9663
BaZr2Te,59.8385,51.0248,-8.8137
Cs3SrZn,18.9931,19.234,0.2409
Hf2MoAu,87.129,68.1523,-18.9767
SrPuO2,29.3187,28.1305,-1.1883
Ga2SbF,17.1246,15.6475,-1.4772
AcH8RuPt2,22.7761,18.3203,-4.4558
FeSnN2,0.0,0.0,0.0
Ca(TiBe)2,11.7868,10.1462,-1.6406
Er5Tl2RuRh2,34.4936,33.1318,-1.3617
Np2PdO11,7.577,9.3916,1.8146
CaTb2Y,23.058,22.1298,-0.9282
ReSbPb,46.3,45.8992,-0.4008
Np2MoO11,7.1235,9.0469,1.9233
Pu2FeO11,4.3095,5.8984,1.5888
Np2AuO11,5.8692,8.2073,2.3381
LiThScMo,30.6391,31.879,1.2399
K2RuPt2,39.76,29.5984,-10.1616
Cr2SiPt,30.6146,22.468,-8.1466
GdScGe3,14.2339,12.2793,-1.9546
TlAsBr2,20.8075,21.286,0.4785
ReTc(PbO3)2,30.5088,28.2223,-2.2865
Sr2TaW,43.4357,31.1943,-12.2414
Cs2ScPCO7,28.6771,24.3532,-4.3239
Th4TcPd,54.2585,55.3945,1.136
CaBe4As,12.7353,8.3751,-4.3602
KLaNb2Sb,79.7828,63.074,-16.7088
Ir2IBr,27.3901,30.4921,3.102
V7Mo2Os3,90.4745,72.7938,-17.6807
La2GaGe4Pt3,40.8363,29.9238,-10.9125
In3GaP,21.301,19.5279,-1.7731
Cr2ReSi,18.3358,18.5351,0.1993
Cr2ReSi,18.5318,18.5351,0.0033
Rb2NiP2,11.3956,8.9616,-2.434
Cr2ReSi,18.352,18.5351,0.183
Ag(HgAu3)2,32.5076,33.0786,0.5711
In2AgAu,29.5126,28.8451,-0.6675
Cr2ReSi,18.3857,18.5351,0.1494
TlAsBr2,20.7545,21.286,0.5315
In2AgAu,29.539,28.8451,-0.6939
V(CoCu)2,50.3544,38.2543,-12.1002
Na3BiF6,15.9516,15.946,-0.0057
Ag2AuI6,25.4648,24.0529,-1.4118
LiCoCuO4,19.9881,16.2763,-3.7118
TaReSiH,43.2742,41.5986,-1.6756
Hf(AgI3)2,34.3372,29.1374,-5.1998
La3AgRu,40.7145,28.8348,-11.8797
Be2TeBr,14.1429,14.0708,-0.072
Cd2IrPb,30.6395,34.4445,3.805
LiMo2Pb,15.3553,20.0755,4.7202
Y(TmAl3)2,16.5987,16.1716,-0.4271
Ru2RhPb,44.9154,40.3118,-4.6036
SiAs,10.0567,27.4763,17.4195
Sr3Sn3Au8,33.7995,35.3323,1.5328
Sr2Tl2O5,0.0,1.8226,1.8226
TaCo2Mo,37.1242,30.1421,-6.9821
La6PrAg2,40.7779,28.1638,-12.614
La(Pr3Ag)2,9.4119,7.373,-2.0389
SiAs,0.0,27.4763,27.4763
TaCo2Mo,37.139,30.1421,-6.9969
BeTe2Br,24.2326,23.996,-0.2366
TaAuSeBr2,31.2158,29.7046,-1.5113
YMo3N,34.1152,32.4113,-1.7039
Tm5IrRu4,27.3357,29.0195,1.6838
BeTeBr2,16.7592,16.7436,-0.0155
Cr2SiRu,15.583,12.7263,-2.8567
TaCo2Mo,37.1974,30.1421,-7.0553
BeTeBr2,16.4697,16.7436,0.274
BeTe2Br,24.3613,23.996,-0.3653
Re2AgTe,39.3247,38.5898,-0.7348
Zr2Sn2P,41.1371,36.6551,-4.482
AlTl2Mo,31.9015,31.515,-0.3865
Sc3Ga,5.6269,7.9259,2.299
ReAg2Te,36.9664,33.4267,-3.5397
Ce(NdAg3)2,28.9167,24.6795,-4.2372
BaC3I,44.3837,31.4462,-12.9375
BeSiAs2,23.0251,17.0297,-5.9954
V7Mo3Os2,89.4164,70.5231,-18.8933
Sr2Cd4In3Pb,23.3373,22.3241,-1.0133
Cr2SiSb,19.9244,15.9914,-3.933
Li2TcNi,25.1443,22.3223,-2.822
Tl2SbSe2,45.0983,39.8683,-5.2301
LiTe2SeN,27.5885,24.8782,-2.7103
NaLa2BiO5,25.2018,24.4557,-0.7461
La2InAg6,34.3481,25.493,-8.8551
ZrTaTe,59.0567,54.8335,-4.2233
TaCr2Se,51.4138,38.2115,-13.2023
Ho(ScAl3)2,6.8437,8.2507,1.407
CsReOs,14.7002,21.2923,6.592
Tc3(PtRh)2,79.4874,60.6353,-18.8522
ErTlAgSe2,36.7539,33.6761,-3.0779
ScSb,9.7017,20.288,10.5863