Formula,E_hull_DFT (eV/atom),E_hull_ML (eV/atom),Delta (ML - DFT)
FeCu2F6,9.8964,9.85,-0.0464
Dy4Ga5Si2,15.8416,15.9994,0.1579
ZrCu6,21.0912,18.8824,-2.2088
TaCuRu2,20.0419,17.5809,-2.4611
Zn2BiF,16.5656,18.4523,1.8868
Tb5Sc2,15.7722,19.3917,3.6195
TbMn2V,89.011,72.4776,-16.5334
V2Zn2In,54.343,44.0293,-10.3137
Cu2PSe,21.3019,17.6448,-3.657
FePPd5,22.1002,21.9254,-0.1747
Y6CuPb2,27.0633,26.3923,-0.671
Li2TiAu,7.4593,11.8781,4.4188
AlSiHg,19.7011,17.0646,-2.6366
CdInAu2,33.3068,34.415,1.1082
BaLiCdIn2,13.2282,13.7411,0.5129
Cd2GeF6,12.6062,13.1453,0.5391
TaCuRu,21.4771,24.2955,2.8185
KZn2Si,11.4475,9.7686,-1.6789
NaTb2Ho,26.6806,27.9876,1.307
BaReOs2,44.3255,41.098,-3.2275
Ac6Co(PtBr)2,55.5793,50.3346,-5.2447
LaDy2YHo,25.604,24.8537,-0.7503
Na3ZrTe,43.3508,36.388,-6.9628
NiAgIr,27.6707,28.2892,0.6185
ZrTaC,67.5257,57.1004,-10.4253
Sc2Cd2Ni,12.1531,13.5751,1.4219
BRh3Pb,31.304,29.0941,-2.2098
Rb5(PbCl4)3,0.0,0.5837,0.5837
La12Pb3C5,35.9257,24.784,-11.1417
Cr2OsRu,22.4009,21.1552,-1.2457
Ti5SnAu2,21.5554,15.5596,-5.9957
MnSN2Cl,42.4467,33.9576,-8.489
SrSnSb2,30.5722,27.9215,-2.6507
LaNbPdN2,50.4821,40.1883,-10.2938
Sr2Y,16.7052,15.7152,-0.99
Pr(HoIn4)3,19.4754,20.6207,1.1453
BaReW,42.5195,39.0192,-3.5003
Ba(TePb)2,33.6598,33.5194,-0.1404
Zr(SeS)2,61.0112,48.3512,-12.66
CuTcIrPb2,50.7289,48.1289,-2.6
Sr2Y,13.6731,15.7152,2.0421
Sm2Se2S,32.6568,28.6608,-3.996
AlSi2Ag,26.451,21.0343,-5.4166
Al2CdBr,9.3287,10.1809,0.8522
TaCrRu,24.4452,20.8285,-3.6167
Ba2OsNCl,25.1943,21.0498,-4.1445
LiCu3Br4,17.2445,14.9915,-2.253
Ta2CrRu,50.1056,43.4718,-6.6338
TaCrRu2,44.7238,36.7141,-8.0097
Ca2ZnGeAu6,31.4231,32.2054,0.7822
U(SbAu)2,44.9615,44.1691,-0.7925
LiAgOs2,29.199,31.0924,1.8934
TaCrRu2,44.9381,36.7141,-8.224
Mo2AsIr,26.8022,24.7093,-2.0929
Sb3SeS,48.59,38.5693,-10.0206
YTaP2S,40.5757,34.5296,-6.0461
MoAs2Ir,15.9841,18.1036,2.1195
MoAsIr2,30.9648,33.6132,2.6484
MoAsIr2,30.9529,33.6132,2.6603
AcTb(H3Ir)2,12.1024,14.5451,2.4427
MoAs2Ir,23.0595,18.1036,-4.9559
KMo2Ir,27.9295,24.4761,-3.4534
Sr2In3Hg4Pb,13.4934,14.23,0.7366
Sc2SiAs2,28.4871,21.0497,-7.4374
Be2PbBr,23.9248,23.2787,-0.6461
SmAl2GaAu4,28.0883,30.0064,1.9182
LaSmGePt,37.3561,30.1164,-7.2398
YCu,30.9928,24.5469,-6.4458
BePbBr2,26.1132,25.2143,-0.899
CdInPt,42.6721,35.1307,-7.5414
TaCr2Ru,42.9425,33.7147,-9.2278
SrY2,16.8972,16.3447,-0.5526
LiAgPt2,52.4067,39.4301,-12.9767
TcNi5,20.6747,20.4456,-0.2291
Bi2Sb2Au,49.2719,48.2512,-1.0207
La3RuPb,26.625,24.1123,-2.5126
Tl2Sb2Au,44.461,42.8133,-1.6477
K(SiTe)2,25.1977,21.1055,-4.0922
Sm2Y4Er2Th,25.5794,27.5305,1.951
LiReAg,24.2369,24.5114,0.2745
SiTe2,33.2952,30.6407,-2.6544
SrY,0.0,1.4024,1.4024
MnNCl3,32.6895,27.4761,-5.2134
Na2SrAlSb2,22.3886,19.2659,-3.1228
Ac2CdAu4,47.8326,49.0564,1.2238
Si2Te,20.2076,17.4553,-2.7523
LiCa2Al,6.3856,6.5102,0.1246
LiAgSb,25.4283,22.1821,-3.2461
Pm12Pb3C5,20.152,18.6748,-1.4771
NCl,3.4322,2.401,-1.0311
SrY8,14.8713,16.3842,1.5129
LiTa2Ag,26.7358,27.7954,1.0596
SbPdSe,37.4529,32.4496,-5.0033
La2SiW,39.7083,32.7539,-6.9544
AlCd2Br,13.1691,14.7146,1.5454
Sb2Pd2Se,30.9976,27.1383,-3.8593
Ta2AsSe,47.281,47.4734,0.1924
YCu,0.0,24.5469,24.5469
CdPb3,44.2661,45.6084,1.3423
Al2CdBr,9.3822,10.1809,0.7987
CdCoAs,17.7056,16.2375,-1.4682
Na2B2SbO6,13.5012,11.5636,-1.9376
Al2CdBr,9.4024,10.1809,0.7785
Ba2TbSb2,18.0825,18.2465,0.1641
Tb3PaIn12,23.7218,24.8944,1.1726
CdPb3,44.2608,45.6084,1.3475
Ba2TmSb2,18.9425,18.8981,-0.0444
PrLu2Pu,33.7732,36.4064,2.6332
SnRu2O,30.6808,28.5822,-2.0986
Mg2TaRu,10.61,15.2552,4.6453
BeSb,23.0844,20.8715,-2.2129
K4Rb2Na9,18.2609,14.9831,-3.2779
La2Sb2Au,41.8724,35.8458,-6.0266
Ta2OsN,38.9748,39.3689,0.3941
Pr(HgSb)2,13.3032,12.0354,-1.2678
KTiI3,12.6127,14.3344,1.7216
LiAgW,68.2713,51.5008,-16.7705
Mn2SnMoC,71.7393,53.296,-18.4433
LaSiHg,21.8899,16.924,-4.9659
TiPAu,8.3339,6.4249,-1.909
La9(NiRh2)2,38.2282,27.369,-10.8591
Na4Mn2Br9,22.5677,21.8612,-0.7065
Na4Tl9Pb2,43.986,43.2573,-0.7287
Th3MgH8,17.2763,18.472,1.1957
Ca2TaCr2,35.8562,25.4608,-10.3954
LiAgW,68.9212,51.5008,-17.4203
NaTcO3,17.176,14.9868,-2.1892
LaHfCu,61.2706,45.5536,-15.717
Cd2CoAs,18.1317,17.4558,-0.6759
Re2SbRh,43.97,41.2129,-2.7571
Tb4TmIn15,21.3157,22.4134,1.0977
K2AcF6,12.9323,13.3405,0.4081
Ac2Pt2Pb3,65.8658,59.4948,-6.371
Rb(AlSn4)2,16.0655,16.8925,0.827
Sb(PbI)2,38.9653,38.0221,-0.9432
TmHfTh,73.2549,65.4246,-7.8303
TbTlCuBr5,14.5111,16.4638,1.9527
Rb2ScGe2,13.2752,7.3888,-5.8864
LiAl2As,19.5355,14.816,-4.7195
YTl(PS4)2,49.9659,42.4105,-7.5555
CdIr2,35.5194,38.9772,3.4578
LaSiPb2,42.6579,38.5493,-4.1086
CoHgOF2,11.0149,9.3293,-1.6856
Sr2NCl3,18.9384,18.0391,-0.8992
LiAl2As,19.5134,14.816,-4.6974
Ac2Zn3Ga4Ru,21.2306,20.9952,-0.2354
CdIr2Au,38.8877,41.3254,2.4377
CoAsIr,26.1675,27.2715,1.104
Ta2FeSe,30.9474,31.4865,0.5391
CoAsIr2,30.487,31.5409,1.054
LiAl2Br,13.9201,12.6305,-1.2896
Sr2YCu,24.9053,21.1876,-3.7176
NaPmSm,24.9349,25.5672,0.6323
BaLiAl2,13.8705,10.2361,-3.6344
Sc2SbBr2,21.2981,20.6536,-0.6445
Sr3Cr5Te12,15.2355,13.3267,-1.9088
Ba4Sr2N,3.9086,5.1818,1.2732
Ac5PtPb2,59.5546,57.5685,-1.9861
LaCoAs,28.1612,22.1123,-6.049
La2CoAs,33.7036,26.6199,-7.0837
Y5Pb,20.1117,23.0972,2.9855
LiCaAl2,5.8277,5.852,0.0243
Pm2ErThAs4,21.6445,24.3095,2.665
ScPdRh2Br,30.6129,23.2766,-7.3362
SbRuO2,29.1929,27.9793,-1.2135
SrYCu,28.5554,23.8768,-4.6786
LaTlSi,38.9411,34.1132,-4.8279
Rb2TaSnSe4,26.3898,21.9688,-4.421
SrAgI3,12.9317,13.2748,0.3431
Na2NbZn2,39.2387,32.501,-6.7377
TaSbRh,43.4594,39.9652,-3.4942
TaSbRh,43.4308,39.9652,-3.4656
LaTa2Si,35.1752,33.368,-1.8072
Zr2NiP,56.2901,48.5489,-7.7413
SrPmTe2,29.3118,29.2361,-0.0757
Ac2PdAuO5,20.1984,21.4257,1.2273
Ta2RhSe,42.7723,38.9628,-3.8095
LiAl2Cl,6.6661,8.8403,2.1742
Sc2TlP,31.9366,29.3369,-2.5997
Sb2TePd,37.8466,33.979,-3.8677
SbTePd2,26.9884,25.7328,-1.2556
Sb(TePd)2,29.4878,27.379,-2.1087
BaScCo,7.816,6.8154,-1.0005
Sb3TePd,39.6696,34.4772,-5.1924
YCuTc2B,78.4636,65.4683,-12.9954
As3PdRu,17.3744,14.5068,-2.8676
LiAlCu,7.3657,6.9023,-0.4634
SmGaAu,21.6807,24.9429,3.2623
Ca2FeRe,28.8268,26.3157,-2.5112
Re2PtCl,44.4517,40.0088,-4.4429
Ac(PtPb)3,65.2661,55.2291,-10.037
NaCrBr2,22.9454,20.2564,-2.689
Sb2TePd2,29.8762,27.4441,-2.4321
BeP2NCl,24.0345,18.9544,-5.0801
Ac4PtSe3,59.8546,54.2443,-5.6102
Ba2ScCo,1.5882,2.6956,1.1074
Cu2SnAs2,25.044,22.9044,-2.1396
BaScCo,1.7962,6.8154,5.0192
Ca2FeSb,30.558,24.6257,-5.9323
CoReAs,24.8544,25.3579,0.5035
Sc2Co2Ge,9.38,8.0593,-1.3206
MnAgPb,61.4992,53.15,-8.3492
MnAg2Pb,53.9887,46.0535,-7.9352
Pu(ScCo)2,11.4367,14.1058,2.6691
Ba2HoPdO5,5.5894,4.8282,-0.7612
Ba2PdPbO5,7.4301,8.0591,0.6289
SrY2Cu,27.4507,21.573,-5.8778
Sc2Cu2Au,38.9272,32.5824,-6.3448
Ca2FeTc,41.4812,34.4718,-7.0094
Mn2SiAg,61.3976,48.7077,-12.6899
Sc2NClF,19.0588,17.4361,-1.6227
TlCrMo2,16.1203,20.0298,3.9095
LaPb,38.3156,35.5853,-2.7303
RePdO6,23.4349,22.4179,-1.017
Dy2Sc2Tl,18.5734,21.7889,3.2156
TlRe2Cl,34.9268,36.8845,1.9577
KIrS,32.0089,28.2941,-3.7148
BaNiAg,17.2468,13.9835,-3.2633
AlNi2Mo,25.0384,23.2554,-1.783
Ag4Mo2O9,13.6836,12.6379,-1.0458
ZrTa2C,58.9571,52.5987,-6.3584
Li2MoRu,9.7684,10.8053,1.0369
Co3CI,22.8016,20.6471,-2.1545
HgI2NCl,20.4534,19.5033,-0.9501
TbTm2ScAs4,21.5906,21.1652,-0.4254
LaMoBr2,22.7037,15.6503,-7.0534
TaSbPt2,64.9581,51.9163,-13.0418
Y(CoGe3)4,13.2015,13.03,-0.1716
Sc2CoSe,10.2011,11.7877,1.5866
GaTcTe2,46.5073,42.5423,-3.965
Ac5PtSe4,58.7926,53.2355,-5.5571
LiBeSn,8.0992,5.8702,-2.229
GaTcTe,31.257,27.8702,-3.3868
GaTcI,27.4222,25.742,-1.6802
Cd2Pb4O9,11.2429,13.5088,2.2659
InSbSe3,42.0174,34.3749,-7.6424
AlMo2Br,21.9634,17.0619,-4.9015
Al2Ga4O9,12.5789,11.7432,-0.8358
Al4Ga2O9,1.956,3.3856,1.4296
Np2Cu4O9,2.7958,5.624,2.8283
NaCu4Pb,17.4372,18.0069,0.5697
Al4In2O9,0.0,1.4235,1.4235
Gd(InCu)2,16.2438,18.0242,1.7804
Ta2RuSe,26.6455,37.5289,10.8835
LiMoRu2,13.4601,16.057,2.5969
Rb3CoNCl4O3,6.0474,3.5184,-2.529
Ho(ScTl)2,28.0992,30.147,2.0478
Li3InIr,14.8482,14.6993,-0.1489
MnZn3Se4,38.8353,31.9009,-6.9344
Ce4AgBi12,45.9411,46.3357,0.3946
CoAs2OsSe,39.6261,35.9998,-3.6263
MnCd2Pb,47.8827,41.5835,-6.2992
MnCdPb2,56.3347,52.2526,-4.0821
Ta2CdPt,45.7182,42.6694,-3.0488
Tb5Pr5Sm,12.4633,13.6468,1.1835
LiAlOs,19.0089,19.8596,0.8507
Ta2CdPt,45.4739,42.6694,-2.8045
CeCuO2,0.3031,3.5015,3.1985
MnCd2Pb,47.9694,41.5835,-6.3859
Nd4In12Ag,21.2423,21.9226,0.6803
Pr12Nd5Ho2,6.6031,7.6559,1.0528
Pr12Nd5Sm2,6.2509,7.3099,1.059
GaTe2Pd,30.3148,29.0348,-1.28
Na2Cu2Pb,23.3877,22.4028,-0.9849
Co2Ir2Ru,18.8035,21.1864,2.3829
Yb2NCl,23.5624,26.3887,2.8264
CoSi2P,17.4308,12.1263,-5.3045
Na2YGa,15.5589,15.0834,-0.4755
Na2Be2ZnAu5,28.3515,27.4472,-0.9043
Ni2As2Pd,25.3764,19.7077,-5.6687
ReBW,26.4601,31.6209,5.1608
Y2BrCl2,60.2223,57.0679,-3.1545
ZrGe2C,45.5296,37.6308,-7.8988
CoSb2As,31.4558,26.468,-4.9877
VGaCo4,26.9227,23.9153,-3.0073
Zr2GeC,58.2445,49.7296,-8.5149
AlMo2Br,21.8517,17.0619,-4.7898
Co2SbC,33.9733,28.9765,-4.9967
ZnTcW2,44.7246,43.9899,-0.7347
Co2Te3Pb,28.5578,28.0923,-0.4655
NaSrMn3,69.9579,58.8104,-11.1474
Ti2Si2Os,7.4072,9.416,2.0088
Na3Sn(BiTe3)2,37.5335,35.0842,-2.4493
CoSb2As,30.9574,26.468,-4.4894
CoSb2As,31.388,26.468,-4.9199
Mn3SiC,76.4144,58.3632,-18.0512
Nd4Al12Ag,10.1437,10.3669,0.2232
Sm4Al12Ag,9.4082,10.6118,1.2036
ThZn2GaCu2,18.329,18.7815,0.4525
Sc2TaTi,67.1767,57.0614,-10.1153
KNiAs2,19.5383,15.0046,-4.5337
CuSbPd,19.1032,19.3245,0.2213
Sm6In2Pb,22.1492,24.8776,2.7284
Ta2TlCd,36.7153,39.2997,2.5844
Pr2BiI,16.1107,18.243,2.1324
NaY2Ga,15.5982,16.1346,0.5364
Ac2Er2Pd15,23.2878,24.8577,1.5699
VCd3Ag,44.4044,36.8884,-7.516
Mn2FeSi,56.1872,45.2049,-10.9823
PrSm3O,17.3865,16.567,-0.8195
Be2Al2Pb,27.1054,22.5478,-4.5577
Ta2CdW,33.1427,37.5679,4.4251
Ce2HfNi,52.9164,43.141,-9.7754
Nb2SnP2,54.3789,45.6986,-8.6803
Ac2ZrGe3Pt4,60.3744,49.3861,-10.9883
ReNi5,24.7137,19.637,-5.0767
Sm3AlAu4,32.7588,34.3596,1.6008
Ac8Pt3Br3N,54.1556,50.0184,-4.1372
MnSi3Ge,32.2786,23.5966,-8.682
Sm5Sc2,19.3632,21.2347,1.8715
YCoAs,35.255,31.2189,-4.0362
LiAl2Re,14.5558,15.6151,1.0593
Pa4Al12Au,20.4389,22.3515,1.9126
K2CuAg2,16.7267,13.7518,-2.9749
Ta2CoAs,43.45,36.2244,-7.2256
Th4Al12Au,20.0314,21.337,1.3056
Nd2ScSn2,19.3647,19.1178,-0.2469
Tb2SmAu2,29.0887,32.1134,3.0247
ZrCoAs,43.7413,38.2992,-5.4422
Co4IrRu,17.0502,17.4861,0.4359
Ta2CoAs,43.4303,36.2244,-7.2058
YBrCl2,42.1794,43.1075,0.9281
Sr2AsRu,18.1658,16.2556,-1.9102
NaCuS2,36.1927,28.365,-7.8277
ScIBr,8.6926,9.1077,0.4151
SrAs2Ru,19.3518,15.907,-3.4448
KAc(PuSe2)2,50.1242,46.1959,-3.9282
La2AlAs,40.9366,31.2614,-9.6752
InTc2Pt,67.6909,56.6885,-11.0024
La2AlAs,41.2263,31.2614,-9.9649
Zr6Al2FeH3,49.2818,42.0561,-7.2258
HfPS2Br,56.1476,43.8934,-12.2542
AcGd2Pt,52.61,48.7053,-3.9047
La3AlAs,43.6612,32.17,-11.4912
CaTaSi2,17.2511,15.1558,-2.0953
Hf2ScPd2,60.4904,45.0171,-15.4733
Ti6Te2Pt,22.1219,21.0051,-1.1168
CeErCoHg,14.8916,17.5951,2.7035
YBrCl,55.8119,54.5811,-1.2307
Sm4Al12Co,10.817,10.6779,-0.1391
FeAu2Se,35.8292,34.7808,-1.0484
BiSb3Ru,42.8421,38.3687,-4.4734
ReNiOs2,52.0395,44.4617,-7.5778
NaFeAu,22.3235,22.4335,0.11
GdCu4Pt,23.9316,21.4537,-2.4778
CsRhCl2,16.1853,13.0215,-3.1639
SmAl3AgAu,14.6254,16.1056,1.4802
GaGeOs3,30.5363,32.7246,2.1883
LiAl2In2Pt5,44.9374,33.4186,-11.5188
Re3AgI,37.7057,37.608,-0.0977
LiAl2Sb,15.7083,13.8966,-1.8118
MnZn2Ir,43.4234,36.4134,-7.0099
Zr(ScTc)2,110.1909,91.5214,-18.6695
CaSbOF2,29.79,26.2666,-3.5234
Ac4CdPb12,53.1016,53.8804,0.7788
Ag2AsPt,40.6409,31.6905,-8.9504
Sc2CdIr,20.6052,18.952,-1.6532
Hf5Fe3,89.6591,64.5016,-25.1575
VSbO2F,46.6101,38.138,-8.4721
Sc(InAg)2,23.3327,19.9982,-3.3344
TaCdIr2,35.8107,39.4262,3.6154
AgAsPt,43.5622,34.6112,-8.9509
NiRh3,38.4343,30.9355,-7.4988
Ac4Tl12Cd,51.9175,52.8826,0.9651
Th2ScAu2,39.7174,43.694,3.9765
Sr2ScAs2,18.7533,14.6443,-4.109
Ce4Bi12Pb,47.2833,48.308,1.0248
As2PtPb,40.5245,35.7568,-4.7677
NdPRhO,18.7311,16.4896,-2.2415
ZnIr,0.0,2.3205,2.3205
KLiBr,11.9792,10.8029,-1.1763
InCoCu2,25.7546,21.808,-3.9466
GaPPbS2,42.4366,34.0833,-8.3534
TaCdPb,36.6085,39.117,2.5085
GdBeCu4,12.1748,12.2753,0.1005
TlNiPb2,40.9366,42.2107,1.2741
Mn2SiPt,75.4802,58.1772,-17.303
CoAsW2,28.3901,29.77,1.3799
Sc(GaCu)2,20.5764,17.0334,-3.5431
KBaNaAg,17.0087,14.255,-2.7537
Ca(Pm2Pr)2,14.417,16.3409,1.9239
CaPm5Pr4,11.9243,13.3927,1.4683
Th6CuSe3S2,53.7201,49.7713,-3.9487
Zr2CoAs,57.1581,48.546,-8.6121
Na2LiAs2Pd5,11.1964,12.2119,1.0155
Y4Bi5O,39.7246,40.1012,0.3765
BaTiI2,24.4317,21.616,-2.8157
Sc2AgIr,23.1506,19.6398,-3.5107
Nb4B3C20,62.8138,42.7578,-20.0559
Pu4Ga12Co,22.8492,24.306,1.4568
Tl3CoSb,42.6623,40.4209,-2.2414
Co2RuSe,19.6431,19.7476,0.1045
YBi3O,50.4369,48.3431,-2.0939
Ca2PmPr,8.3675,9.9789,1.6114
Sc(TcNi)2,63.0721,53.2994,-9.7727
SrMn4Co,70.819,57.467,-13.3519
Na3(SiAu)4,29.1459,26.097,-3.049
Th4Ga12Co,21.3427,22.7579,1.4152
Zn2P2Os,8.0087,10.3535,2.3448
BaTm2PdO5,5.9565,7.9415,1.985
TaZnSeBr2,23.8467,22.2468,-1.5999
Nb2Al3Ag,47.6146,39.4843,-8.1303
CdGa3Sb,18.3767,17.172,-1.2046
BeZnTe2,28.8906,23.751,-5.1397
Sr2CoRe,27.7254,23.1016,-4.6239
Zr2CoAs,57.1241,48.546,-8.5781
CrMoW,21.2421,25.0833,3.8412
MnPSe,31.3612,26.5529,-4.8083
RbPd2F6,4.7137,5.3136,0.5999
Sm2Cu2Ir,22.8296,22.7024,-0.1272
SrZrPb2,54.1351,51.3731,-2.762
Ba3Mn2MoO9,41.6798,36.9329,-4.7469
NaSc2Ni,11.2798,11.557,0.2771
Zr2CoAs,57.3519,48.546,-8.8059
AcPPdPt6,63.0474,47.6195,-15.4278
SrZrPb2,54.0986,51.3731,-2.7256
Al2SiTc,39.5831,32.4102,-7.1728
SrZr2Pb,65.8996,58.7703,-7.1294
LiAl2Tl,17.3609,17.1792,-0.1817
AlSiTc2,60.7555,52.5133,-8.2421
Ac2P(PdPt2)2,57.605,46.9968,-10.6082
Tb2ScGa2,9.5909,12.4093,2.8184
Al2SiTc,39.604,32.4102,-7.1937
BaZnPtO,32.5697,23.1307,-9.439
AlSiTc2,60.6282,52.5133,-8.1149
NbRuC2,63.2361,50.4344,-12.8018
Li2Sm(AlAu)2,20.8475,20.7174,-0.13
AcAl2Pt,39.1633,35.088,-4.0753
YMg9Sc2,4.2057,4.9341,0.7284
Al2SiTc,39.5093,32.4102,-7.0991
Cu2Bi2Sb,29.9327,30.2419,0.3092
Sc2AsAu,29.2766,26.5947,-2.6819
TaCdRe2,63.4696,56.3093,-7.1602
Al3SiTc,33.962,22.5723,-11.3896
Si4P2Se,21.2964,16.0241,-5.2723
CsFe2Re,22.9232,20.3077,-2.6155
SrZr2Au,64.6692,57.8458,-6.8234
Ce4In12Co,19.8715,20.9389,1.0673
Ce4CoRh12,40.3399,30.6286,-9.7113
SnTe3As,31.7469,30.0304,-1.7165
Al(SiTc)2,51.3713,42.016,-9.3552
CsRb2C,23.5593,17.8924,-5.6669
CoMoIr2,29.8076,30.9399,1.1323
GaTcAs,36.9801,32.8769,-4.1031
Ac2CdPdO5,16.9201,17.6787,0.7587
Na3Ce2TlSe6,37.34,31.3705,-5.9696
Tc(AsI2)2,29.696,28.0082,-1.6878
Rb(ZnPt)2,35.6627,27.3757,-8.2869
CePr2Lu,12.298,15.0257,2.7277
Cr4Ni12Pt,21.9372,19.4638,-2.4734
Cr4Pd12Rh,17.7316,17.6054,-0.1262
Cr4Pd12Pt,20.0952,19.2341,-0.861
NbIN2,44.5366,37.2366,-7.3
Sc(TiBi)2,18.8513,21.875,3.0237
TbSmNiAu,25.6809,28.2459,2.5651
Sr(IrOs)2,32.3621,34.959,2.5969
Th2Ga3CuNi12,13.4642,14.4769,1.0127
Ta4MnP,31.9062,32.7665,0.8603
In2SiW,23.6707,24.3581,0.6874
ScCr2Co,15.973,13.8102,-2.1627
Pr6HAu2C,7.0184,6.7593,-0.2592
Th4CrGa12,21.527,22.5013,0.9743
SrY5Bi6,34.0742,35.0783,1.0041
CaSc2Be,13.8595,10.4082,-3.4513
Ca2LaY2,21.9606,16.5565,-5.4041
YBiO12,6.7563,6.6368,-0.1195
Ho2ScGe2,25.1274,23.5371,-1.5902
KRbTiI6,16.682,16.7386,0.0566
Tc2Sb2Te,63.9412,53.8628,-10.0784
Ta6MnSb2,45.5005,45.0357,-0.4648
TaPb2,42.2672,47.7092,5.442
Sr4PmTh3As8,26.0277,24.0331,-1.9946
Ac3TeRhI,45.3424,44.5338,-0.8086
Pr5(Dy6Tm)2,19.4672,20.6348,1.1676
Pr12Dy5Th2,11.3721,12.7285,1.3564
SrAuBr3,9.628,9.7689,0.1409
KDy2Sc,18.215,20.1202,1.9052
KRePd,19.1027,22.2619,3.1591
AcAlPtO6,16.194,15.1626,-1.0313
In4CoSb,23.1011,21.9414,-1.1598
Tl(InAu)2,33.9858,35.6541,1.6683
Ba2InSi,8.778,8.6497,-0.1283
InCo4Ir,14.7686,17.587,2.8184
Li(TiIn)2,6.5566,9.0802,2.5236
GaAu2F,27.7027,29.0269,1.3242
AcYAlPt,57.3317,47.6661,-9.6656
Ac2CdGa3Pt4,52.2689,42.9564,-9.3125
Mn3CBr,74.5518,57.8227,-16.7291
TeAsAu2,36.9825,37.0587,0.0763
Sr2TiSb,16.8379,17.627,0.7891
Ga2FeMoO6,18.8448,14.8996,-3.9452
Ag(GeRu)2,17.2972,17.2703,-0.0268
YHoP2,17.4832,16.2981,-1.1851
Te2AsAu,35.7058,34.9198,-0.786
Y7Pb6,31.6445,33.286,1.6414
TeAs2Au,27.8003,28.3815,0.5812
CsCrPt,35.7971,28.3233,-7.4738
MnCo2Se,40.8768,34.043,-6.8339
SiIrBr2,21.3876,20.2628,-1.1249
Cs2CrMoBr6,18.7405,18.1332,-0.6073
LiNd(AlAs)2,24.7665,20.5182,-4.2482
Na2TaPd,23.026,23.6038,0.5778
Pm4AgF12,10.57,12.1043,1.5343
YPb,6.6195,18.3257,11.7063
NaSrPb,24.7056,26.0053,1.2997
Os2PtCl,45.5126,40.8369,-4.6757
Cd2PbW,32.9871,34.6479,1.6608
CoCuHg,25.9043,19.6191,-6.2852
SrYBi2,35.639,35.6977,0.0587
CdTe2Pt,48.2978,40.5378,-7.7599
SrYBi3,40.4802,39.6492,-0.8309
CdTe2Pt,48.205,40.5378,-7.6671
NaAcAsO5,4.861,7.1853,2.3244
NaAlTcO5,7.5498,6.5066,-1.0432
SmThCuRu,28.868,31.9878,3.1198
Sr2YBi,25.9848,25.5923,-0.3925
Mg2CrAgH8,5.7532,5.244,-0.5092
Fe4MoF12,8.2998,7.957,-0.3428
PmNi2Sb,24.9678,22.0516,-2.9162
Ac5Si6,36.8493,34.3216,-2.5277
Zn3Ir,17.0367,16.4227,-0.614
NaZnO,25.5653,19.825,-5.7403
Fe4HgF12,6.3292,6.8979,0.5687
La2TaAg,43.2959,37.3829,-5.913
La2Tb(CI)2,41.8502,32.9492,-8.901
Fe4SbF12,9.858,9.7084,-0.1496
HoFe4F12,6.1079,7.3347,1.2268
Fe4RhF12,7.9698,8.1218,0.1519
TiAlGe2,17.3542,15.5131,-1.8411
La2TaAg,43.3141,37.3829,-5.9312
YCuPb2,44.3814,40.9909,-3.3904
TiAl2Ge,16.286,13.9714,-2.3145
SbMoAs,23.6909,23.1629,-0.5279
CaTaP2O,28.9097,26.3033,-2.6064
VIn2Ge,44.8589,38.3073,-6.5516
TaCdTe2,35.2497,34.6486,-0.6011
ErTiAl,13.931,15.5922,1.6612
UGaRu,23.9408,26.757,2.8161
TaCdTe2,35.2009,34.6486,-0.5523
LiLa2Ru,29.8693,24.8151,-5.0542
Ba(BeI)2,24.5514,25.1127,0.5612
Cd4MoF12,10.1281,11.4331,1.305
HfTc2Ir,83.9678,70.8893,-13.0785
LuTlAg2,36.581,34.5584,-2.0226
SrAg2F6,9.7947,8.2045,-1.5902
Ho2PdPbO5,16.2453,12.5645,-3.6808
Fe4PdF12,6.0871,7.2891,1.2021
Tb6NdTm2Mg,20.7402,23.284,2.5438
CuSiCl4,3.1741,4.0162,0.8421
InSiOs2,29.8762,31.2078,1.3315
Na2TlIrBr,31.4614,29.574,-1.8875
Li2Ac(GePt)2,36.8418,32.4279,-4.4139
CuSiCl2,8.7898,7.1449,-1.6449
PmCu4F12,7.5269,9.0533,1.5264
RbGa4F12,8.5457,9.0812,0.5355
InGaRe2,27.7099,30.9649,3.255
SnIrPtI,39.4273,36.4376,-2.9897
Fe2CoTc,37.0248,31.0317,-5.9931
La(MgH3)2,9.3139,8.2119,-1.102
TaTeSeN2,26.0695,24.6261,-1.4434
SrCd2Ir,25.4809,24.2572,-1.2237
TaCoBr2,37.5888,28.5516,-9.0371
PmSmPtAu,45.6531,41.3223,-4.3307
SmSc(GaAu2)2,28.8915,30.6117,1.7202
La2Ga3Pd4Au,27.0674,23.8672,-3.2001
SnIrPtI,44.3089,36.4376,-7.8713
Mn2Fe2Pb,48.2308,41.9383,-6.2925
LaSm6Tm2Mg,22.4036,23.0765,0.6729
PmSmIrAu,39.0843,39.306,0.2217
SmTlCuAu,32.1292,34.2994,2.1702
SiAgMo2,19.5,18.6761,-0.8238
Y2Cr2Pb,46.0444,37.9367,-8.1077
Cs3CrSb,26.0412,23.8104,-2.2308
AlPtBr2,30.8211,24.2461,-6.5751
Sm2Rh2Au,32.1249,29.0484,-3.0766
CaNi2Se,37.2742,31.371,-5.9032
Mn2ZnIr,66.4521,54.0616,-12.3905
SiAgMo2,19.5324,18.6761,-0.8563
SmPaAu2,46.2999,49.0914,2.7915
LaSmAuSe,41.7785,37.2763,-4.5022
Mg2CoRe,17.2006,16.9007,-0.2999
CoTc2Pt,70.3157,57.8172,-12.4986
SmPaOsAu,50.39,51.7673,1.3772
AcLaSnPt,55.8468,47.993,-7.8538
Na2MnTc,63.4398,54.4786,-8.9611
Sm2PaAu,40.9287,43.8903,2.9616
Cs(TlIn)2,30.8647,32.2643,1.3996
Ag2SnP2,14.6093,13.503,-1.1062
SmZnBiAu,33.2497,35.438,2.1884
Y2BAs,49.2845,44.9252,-4.3594
YPb,27.2739,18.3257,-8.9482
MnNb2C,111.514,87.9129,-23.6011
TaAs2PtSe,51.6967,44.426,-7.2706
Ga(FeAs3)4,26.0542,22.7592,-3.2951
CoRe2Tc,44.8334,46.5872,1.7538
Pm6Pr3Sc2,14.3632,14.7326,0.3694
Sr2Zn2Ru,8.9105,10.8816,1.9711
SmPAu,19.1607,23.5412,4.3805
TbNi3Ge2,10.1955,9.9295,-0.266
Fe4Ni12Ir,27.9946,22.3911,-5.6036
CeSmTlAu,36.5741,39.1212,2.5471
SrTe3Ru,30.9263,29.7215,-1.2048
Be2Al2Pb,30.3669,22.5478,-7.8192
TaCr2P,63.1396,50.0896,-13.0501
CeSm4Sb5,33.7836,31.6935,-2.0901
BaSiMo2,13.9325,12.6702,-1.2623
AlPdPb2,27.7591,30.4652,2.7061
LaSmZnAu,32.3802,30.9636,-1.4165
BeAl2Pb,26.5289,23.6262,-2.9027
LiEuTe,22.8322,23.0237,0.1915
BeAl2Re,22.8873,21.3679,-1.5194
Eu3Te,31.1222,31.0502,-0.072
BeAl2Re,22.9056,21.3679,-1.5377
BeAl2Pb,26.6628,23.6262,-3.0366
KSrF2,9.353,10.9534,1.6004
BeAl2Re,22.8904,21.3679,-1.5225
BeAlRe2,32.1989,33.3492,1.1503
LiAs2Ir,15.921,17.6228,1.7018
Al3RePb,22.3012,23.1438,0.8426
Ba2CdTe,14.4036,14.9722,0.5686
Cs3LiIn2Br9,15.6615,15.5977,-0.0637
ThBRu3,22.5351,25.8609,3.3258
AlRePb2,37.9832,39.6895,1.7063
AlRe2Pb,34.5237,37.7496,3.226
SmTm6Al,26.5992,28.4028,1.8036
Al2RePb,25.3205,27.8315,2.511
LiLaAs2,17.4264,15.7519,-1.6745
ReSi2Hg,18.1055,16.1794,-1.9261
CsBe4Al4(B3O7)4,10.4442,8.9996,-1.4446
Cs(FeSb3)4,42.4307,34.5445,-7.8862
ZrCrFe,50.7429,41.7416,-9.0013
CdTeIr2,37.6354,39.1968,1.5614
Tb3I7Br,21.5652,23.52,1.9548