Formula,E_hull_DFT (eV/atom),E_hull_ML (eV/atom),Delta (ML - DFT)
Pm4Pr11Tm9,13.4953,15.0787,1.5834
Tb9Pr11Dy4,12.3994,14.0056,1.6062
Na(IrOs)2,39.5915,41.5749,1.9834
Cs3Sm(HoS3)2,39.4458,32.9019,-6.5439
Pr4Er11Tm9,24.6909,25.8993,1.2084
Pr4Dy11Er9,22.8275,24.4528,1.6253
Pr4Sm11Ho9,21.3465,22.9712,1.6247
P2S,22.5805,22.5946,0.014
Pr4Er9Tm11,24.8029,25.9419,1.1389
Pb2SeN2,30.9644,30.0525,-0.9118
PuNi,39.9267,41.9583,2.0316
Y2Er2Sn7,28.5729,25.6506,-2.9222
PrBi2Os,30.2429,35.0688,4.8258
Pm9Pr11Dy4,11.721,13.3136,1.5925
InGaCo3S2,22.5505,19.8766,-2.674
Tb3Pm(PuS2)4,51.0356,44.8112,-6.2244
Rb3(AgHg)2,9.5758,7.2146,-2.3611
KYPb3,37.5036,38.2869,0.7832
Pr2Sm6Y3Er,18.1405,19.4107,1.2702
Pa6MnTe3S2,61.0773,57.586,-3.4913
Mg5(InPb)2,17.5044,18.3648,0.8604
Ba3AcTe4,27.4191,27.5708,0.1516
Ba2Ge2Ru2C,16.7843,17.1139,0.3297
Ba2CrGeRu,11.0155,10.8866,-0.1288
ScAsPd2,23.0735,20.2768,-2.7967
AlTlCo,37.1031,30.2199,-6.8832
KSrHoI6,16.4265,17.7376,1.3111
Pm3Zn2Cd3,18.1127,19.6119,1.4992
BeIr2O,16.4928,21.5823,5.0895
BeWO2,16.5318,15.956,-0.5759
LuTlNi4,17.9001,20.5136,2.6135
NbSbBr3,51.169,43.2663,-7.9028
LiPrYEr,10.6447,12.5882,1.9435
Tc2NiIr,50.8227,47.4151,-3.4076
GdAl5Co,13.8502,11.7253,-2.1249
BaAl2Co,25.2854,15.3522,-9.9332
SrGa6Fe,13.4934,12.6501,-0.8433
Tb6SmSc4,18.9601,20.8749,1.9148
Tb2Sm7Sc,24.0045,25.6174,1.6129
Tm4CuAgAu2,31.3092,32.4872,1.178
InWAu2,38.5413,42.1126,3.5713
Gd2TmCu,23.9357,26.66,2.7243
ReSb2Pt,55.2904,45.0281,-10.2623
Tm(CuAs)2,12.2597,14.3286,2.0689
ReSiI2,20.3994,21.6472,1.2479
RbV2AgBr8,31.0848,25.2701,-5.8147
TmCu2Ag,18.7563,18.4904,-0.2659
CrIn(SnCl4)2,11.0419,11.4706,0.4287
TlTePt2,67.9606,54.1772,-13.7834
CrIn(PbCl4)2,16.2947,16.589,0.2943
KGaAg2,18.2129,15.5299,-2.683
KNa2Pb,28.4036,26.1008,-2.3028
SnRu2Rh,31.1933,27.1177,-4.0756
HfNb2S,111.9547,89.2743,-22.6804
Ac2Pd5PtAu2,34.4103,34.4149,0.0046
ThNbRu2,59.7913,57.3069,-2.4844
ZrCSe2Br,54.0616,42.1815,-11.8802
Cu4IrAu,19.7896,22.0147,2.2251
TmCuAu,27.6644,30.0854,2.421
ReOsPt2,65.59,54.5755,-11.0145
Cs2BiN2,21.6504,22.5504,0.9
Ac(Tb3Th)2,39.681,42.8595,3.1785
AcSmS14,54.8703,40.5881,-14.2822
TbCe3(PmS3)2,38.9408,33.0994,-5.8414
AcSmS14,54.8753,40.5881,-14.2872
TaSi2Au,28.3707,27.0144,-1.3563
TaCu3,16.1315,17.5824,1.4509
ReOsPt3,72.0893,55.9022,-16.1871
YPtO3,12.6505,12.343,-0.3075
Tm2CuAg,24.5361,24.7709,0.2349
ReOs2Pt,53.7996,51.3901,-2.4095
ReOs2Pt,53.7153,51.3901,-2.3252
Rb2Tl2Pb3,37.5352,38.4359,0.9007
Tm2MnCu2,29.8607,27.0942,-2.7665
Ta3SiAu,36.3261,37.0192,0.6932
TmLuBeCu,21.8795,21.984,0.1045
Tm2CuAu,28.2526,30.8409,2.5884
Cs2Rb3Cd2,13.2091,13.2026,-0.0065
EuTmCu2,17.9512,19.7118,1.7607
Ba3(TlRh)2,28.2812,24.9744,-3.3067
AcCdSi2Pt5,61.6378,45.2136,-16.4242
TmCuP2,9.126,11.1143,1.9883
TmLuCu2,19.128,21.3641,2.2361
TbSmSc2,15.4856,18.6202,3.1346
Yb3Fe2(CuP2)2,26.2602,23.2369,-3.0234
Rb(SbBr4)2,21.7416,19.9772,-1.7644
NbRhCl2,50.0987,40.2866,-9.8121
NbNiPd3,41.5061,37.0229,-4.4831
Na3BrN,16.9505,14.1301,-2.8203
Tc2PbAu,72.0149,64.7427,-7.2723
Ta2NiAs,32.0711,33.3825,1.3114
TaNi2As,24.2151,23.3481,-0.8669
Sc2SnC,23.9862,19.0582,-4.9281
Ta2NiAs2,19.4998,21.1755,1.6757
NaMnTc2,79.5804,68.3411,-11.2393
NbSe2Cl,60.025,50.87,-9.155
RbGaTe2,23.4032,23.3956,-0.0077
Y2TaNiAs,67.945,58.1256,-9.8194
Zr3SnC,74.6989,60.7816,-13.9172
Pm3Th2ScAs6,25.4781,25.8089,0.3308
ZrSc2SnC,43.6121,33.8906,-9.7215
CdAg,14.9042,13.8563,-1.0479
Zr2ScSn2,48.2492,40.8937,-7.3555
ZrSc2Sn,39.8813,32.8251,-7.0563
Zr2ScSn,63.2019,51.3366,-11.8653
Al(GeC)2,37.4394,28.109,-9.3304
AlAgPt2,52.821,38.2356,-14.5854
Cd7(AgSn)2,21.7955,20.9032,-0.8923
CaEu3N,17.8141,18.9865,1.1724
CdAg2,25.2028,22.0975,-3.1053
InRePb2,42.2107,43.8867,1.676
Co7Au,11.9297,13.6259,1.6962
FeTcPt2,68.4761,51.592,-16.8841
Al2CoAu,26.8649,22.1026,-4.7623
Ag7Sn3,28.1842,22.8795,-5.3047
Tb2MnAg,45.913,39.6449,-6.2682
TiV3Cd,84.3438,66.4713,-17.8725
Ce3Cu2Ni7,17.0222,15.5765,-1.4457
TbMnAg,41.527,34.9435,-6.5835
Tl2InPb,43.522,44.4471,0.9251
Y3(ErTm3)2,26.1147,27.7547,1.64
TlSiBr,22.5267,21.7732,-0.7535
AcCo(BO3)2,5.6757,8.6819,3.0062
CaIrPd,15.2266,14.8616,-0.365
Mo3PdPb,27.8943,26.8633,-1.031
TlSi3Br,22.6074,18.1827,-4.4247
CuSb2TeRh,38.1068,30.5609,-7.5459
Tb2Pr2Sb3,18.954,17.7277,-1.2264
ThPa2Hg,50.2493,53.1684,2.9191
TaTi2SnP,23.5096,19.1703,-4.3392
KLiS2,26.9787,19.5837,-7.3949
CsPm2OsO8,8.3598,10.4776,2.1178
Tb2VGa5,27.6405,25.2089,-2.4316
LaPaPb2,55.8924,53.4292,-2.4631
PaTlSe4,51.0629,46.8392,-4.2237
NaTl3InSn,33.6279,33.8616,0.2337
Li3SI,15.0221,12.3476,-2.6746
YEr3Ru,21.0773,20.9161,-0.1612
Y2ErPd2,25.4149,22.2868,-3.128
ScPd3Pb,7.7219,10.038,2.3161
YErMo,30.5259,23.9647,-6.5612
Y4Er4Tl,24.8101,27.1022,2.2921
YEr(ScBi2)2,33.2256,35.2884,2.0629
FeReTc,58.9889,50.8304,-8.1585
RbV2PtSe8,60.816,47.766,-13.05
Tl3W,43.8129,46.3733,2.5604
Nb2WI,86.9781,76.039,-10.9391
K(EuRh)2,33.1796,27.3788,-5.8008
Ba2SrLu,11.9337,13.5811,1.6475
Ba2CoHgGe,4.8558,4.1111,-0.7447
Tb3Nd6Y2Er,23.7395,25.3667,1.6272
TbCe2(PuS2)3,50.8705,44.0027,-6.8678
Pm3(ScAg)2,22.734,20.4838,-2.2501
MnCdIr3,52.0951,48.6038,-3.4913
Ho3Ni7Ru2,13.0346,15.7139,2.6793
RbZr(InCl4)2,13.1269,13.0083,-0.1186
ZrPdRu2,36.7832,35.3261,-1.4571
AlAsP,30.8468,24.1583,-6.6885
Pm3(Nd3Er)2,25.8225,27.4599,1.6374
FeRe2Tc,54.2639,49.2877,-4.9762
Eu2Mn2O5,67.5052,59.7602,-7.7451
BaSr3Zn,10.5109,10.8099,0.2989
Nd3Ni7Ru2,12.241,14.8374,2.5963
YReHg2,22.8662,20.9053,-1.9609
Pr3(Sm4Tm)2,19.2287,20.7542,1.5255
Pm3(ScCd)2,19.1723,19.4148,0.2424
La3Tb2Sm3,35.4313,30.014,-5.4173
AcNdYEr2,28.2094,30.8916,2.6822
In2CuI,14.7617,16.5418,1.7801
AcPmNd2,34.6914,37.6542,2.9629
Er3TmCu4,17.9355,19.7952,1.8597
Tb4Dy2YEr2,25.9739,28.3256,2.3517
InCu3I,13.5392,14.0631,0.524
AcPm2Nd,34.8262,37.6426,2.8165
SiIrC2,46.5101,35.9359,-10.5742
NaSbTe,26.9393,22.8787,-4.0606
Sb2AsPb,38.2003,35.343,-2.8573
InPt2,61.0618,47.5703,-13.4914
AlCd4Co,23.1284,19.6491,-3.4793
TaTl2Sb,46.8681,45.2182,-1.6499
ZrRuW2,57.7987,52.3769,-5.4219
Y2ScS,31.326,30.2152,-1.1108
B3AuI,16.1267,17.0255,0.8989
CsNaAg,25.0659,20.8318,-4.234
RbNbGa2,40.8821,35.004,-5.8781
AcPmNd2,34.6793,37.6542,2.975
CaP3S,26.1929,23.2047,-2.9882
Tl2TcPb,62.3302,59.0782,-3.252
Na3MnBi,47.2502,42.3556,-4.8946
La3Y6ErTh2,33.3173,30.3808,-2.9365
BaLaFe2,19.1106,14.483,-4.6276
V4Ga(TeS)4,70.0537,56.9566,-13.0971
Pm3Bi2Se,31.9482,33.7939,1.8457
LaYErTh,40.2524,38.8025,-1.4499
SrTc2Ge,46.4886,40.0055,-6.4831
BaSrLa2Fe,32.7407,23.097,-9.6437
BaSrLa2Fe,33.512,23.097,-10.4151
Si(IrPd)2,20.8741,23.6037,2.7296
NaAg3Ir,33.7779,28.1341,-5.6437
LiPm2(PbS2)3,44.5835,37.0501,-7.5334
Eu2HgI,18.9847,19.9742,0.9895
ScTa2Re,74.0344,69.3503,-4.6841
TiSiRu2,18.713,16.3745,-2.3385
Ce3Pu2ThS6,50.22,44.409,-5.811
CaScIn,2.9977,3.9647,0.967
Sb2AuN2,27.8294,24.9674,-2.862
CaWC2,34.0546,29.8116,-4.243
CaSc4In5,17.2796,14.4536,-2.826
PS,0.0,0.0,0.0
Y(CrBr)2,33.089,25.8922,-7.1967
TlTcMo2,44.1492,43.0411,-1.108
TaHgPb3,39.2411,40.5023,1.2612
Y2Hf2Sn,68.3156,49.3328,-18.9828
NaScSeS,41.6148,37.2793,-4.3356
LiPu3(NpS3)2,56.7683,49.7661,-7.0022
Na(IrRu)2,28.5845,26.3543,-2.2302
PmSm6Y2Er3,24.2367,25.8495,1.6128
TaMnHg2,34.1834,29.8665,-4.3169
CaScIn,14.5364,3.9647,-10.5717
KPd2Cl,13.2069,14.1386,0.9316
Sb3Pb5,49.7344,46.347,-3.3874
CaScIn3,17.5954,15.9576,-1.6378
HfGaRu2,39.4665,32.7267,-6.7398
LaEr3Cu4,16.0168,16.3093,0.2925
Sm3ErCu4,16.2205,18.4589,2.2384
AsIrPbBr2,33.0854,29.868,-3.2174
RbV(SnBr4)2,21.1126,19.3599,-1.7526
Li2SiS,10.6713,8.2933,-2.378
NaAlV2,67.3354,53.4572,-13.8781
Li2RuBr,16.8888,16.5,-0.3888
CaFe2N,10.0688,9.563,-0.5059
RbV(CuBr4)2,21.1237,18.7465,-2.3772
Y4ErAl4,32.3245,24.3673,-7.9571
CsAgRh3,42.5797,31.644,-10.9357
Sc11Ag4Hg9,7.0825,6.8463,-0.2361
Sn2GeBi2,28.379,29.5496,1.1706
ScH3Rh,0.0,0.0,0.0
BaPPb4,38.0335,37.8625,-0.171
NaTiOs2,34.6051,34.357,-0.2481
PrNdIr2,26.1996,30.1848,3.9852
TaAlBr3,15.6084,16.0086,0.4002
Sr2TiOs,20.5011,21.7699,1.2688
TaPdSe4,40.7552,35.5381,-5.2171
Ta2AlBr,22.459,25.12,2.661
SrLu2N,19.7252,22.247,2.5218
TaAlBr,18.2481,20.1759,1.9278
NbC3Cl,67.7812,49.9901,-17.7911
ScCd2Sb,23.5274,21.4751,-2.0523
RbLiZnS2,21.9292,16.8497,-5.0795
BaLa2Pb,38.7868,31.1186,-7.6682
Na2CdTeO4,9.4887,9.423,-0.0657
Sc4AlTl,12.8378,14.8899,2.0521
Tb2Y10Er,17.3018,18.9057,1.6039
BaCaPr,1.2221,2.1106,0.8884
LiIr2SBr,38.9365,35.8819,-3.0546
ReSb,43.865,42.0169,-1.8481
SrBe2V,41.0884,30.9084,-10.18
LiMnSN2,33.0375,25.3568,-7.6808
Ti,5.4043,9.8791,4.4748
Ba7Na3N2,6.1807,5.3168,-0.8638
TaCu2,19.2896,5.669,-13.6206
TaCu2,12.8681,5.669,-7.1991
ReSb,35.1864,42.0169,6.8305
Rb2ZnReTe,28.6061,21.5668,-7.0393
Cs(CaRh)2,22.738,18.4955,-4.2426
BaAcY,59.2155,53.2022,-6.0133
CsCe2(CN3)2,26.8763,24.9108,-1.9654
Rb2LiVS4,40.0382,29.8736,-10.1646
BaAcY,59.2083,53.2022,-6.0061
LiBeS2,24.4609,18.3956,-6.0653
Hf2Sc2In3,53.0061,40.0213,-12.9848
Pm2Sc2In3,19.6951,18.8848,-0.8103
Cr5Ni,15.6947,14.9138,-0.7809
KLaBe3,14.357,11.3631,-2.9939
GaNiBr4,9.6714,10.5483,0.8769
GeSb3As,31.5646,25.2789,-6.2858
Cs7Ag3O2,21.6992,19.9216,-1.7776
Ba2Sr2Pt3,41.5462,29.8894,-11.6568
Zr2ZnSi,55.0065,45.903,-9.1035
Ge(SbAs)2,24.12,20.8522,-3.2679
KVO4,16.68,12.5153,-4.1647
IrAuF6,17.8926,18.4695,0.5768
LaAlPb,26.3727,32.2518,5.8792
Tb3(NdSc)2,14.9866,18.1288,3.1422
YTlS2,0.0,0.0,0.0
AgIr2Pb,38.0584,39.9047,1.8464
Sm(Y2Th)3,24.4532,28.1551,3.7019
ZnI6,20.7175,21.2172,0.4997
Nd2Tm3Sc2,21.6589,24.025,2.3661
KAl2Cd,9.65,10.4311,0.7812
BaNbPb2,61.9892,57.0451,-4.9441
MoOsSe4,43.5324,37.2263,-6.3061
BaPb3,39.1255,40.5864,1.4609
Be2InTc,29.5519,26.3675,-3.1844
TbBiSb,41.7645,40.131,-1.6335
BiPb3,53.1314,54.8806,1.7492
Be2InTc,29.3395,26.3675,-2.9719
Nb2PRu,75.5904,65.7703,-9.8202
Ti3AgSb,19.0082,16.9047,-2.1035
NaCo2Cl,6.8979,8.1071,1.2092
BeInTc2,51.9173,45.0539,-6.8634
MnFePb2O5,39.6568,35.7643,-3.8925
Y2In9Hg,23.0805,21.4261,-1.6544
CsBeBi,17.5319,22.248,4.7162
BeInTc2,52.0159,45.0539,-6.962
Na2NiRhF6,14.2788,12.8216,-1.4572
LiIrS3,43.0819,33.4332,-9.6488
Na2BeIn,17.7449,15.8571,-1.8879
DyNiAg2F6,13.2696,12.8068,-0.4627
Mn2MoIrBr,57.475,46.0648,-11.4102
ScTc3W,96.3239,80.831,-15.4929
TlZn2Cr,17.5155,19.4104,1.8948
ScCrC,2.4422,4.879,2.4368
NbTc3Cl,85.781,70.855,-14.926
NbP2Ru,40.8232,37.4441,-3.379
Hf2GaRu2,57.4076,43.6917,-13.7159
BaCr4As,17.9738,14.71,-3.2638
NiTe2I,28.8873,27.8527,-1.0346
TlZnCr2,20.667,19.9866,-0.6804
TlCr3,19.9009,19.7625,-0.1384
TlCr,19.4365,23.3917,3.9552
Sr11Tl9Pb4,33.5918,34.4481,0.8563
InIrPtI,39.6118,35.2584,-4.3533
Ta4PtPb,48.5603,46.3776,-2.1827
Al2Cu2Se,11.5157,10.0821,-1.4336
Ba4Ca2Cr,8.5122,7.0715,-1.4407
NaPmSiAg,31.0683,25.4021,-5.6662
CrCoRe2,24.1743,27.4188,3.2444
CsUTcN4,18.0869,17.0518,-1.0352
In3SeI,26.5456,24.8477,-1.6979
InIrI,16.1121,20.6701,4.558
BaCa2Cr,14.6657,11.661,-3.0047
Pr2Nd3Sc2,10.6969,13.1745,2.4776
Ni2TeI2,20.3849,21.198,0.8131
KVO3,30.0709,24.088,-5.9829
CrCo3Re,15.2023,16.4034,1.2011
VInPt2Cl,66.5908,49.5141,-17.0768
HoScTc,92.0257,77.9086,-14.1171
Cr2CoRe,16.5211,18.3613,1.8401
Ba3Sm(FeO3)2,5.9323,4.747,-1.1853
Sc8Tl5Cd,22.2574,23.7069,1.4495
Sn3TeAu3,32.0419,32.7617,0.7198
Cs(AlBi)2,27.8359,29.0153,1.1794
InCo4Br,13.8185,12.9688,-0.8497
CaErTl2,33.7568,35.7491,1.9923
CdTc2Pb,64.9233,57.8055,-7.1178
Zr2NbN2,66.7031,57.3702,-9.3329
Li2TeAu2,24.1191,24.8709,0.7518
Al(CuSe)2,20.7883,16.7606,-4.0277
U6IrSe12,53.4536,48.4252,-5.0284
TiMo2Br,5.3084,9.5949,4.2865
Tl2CdGeI6,26.3074,27.146,0.8385
Nd2Cu4Si3Ge,13.7024,12.8213,-0.8811
Fe5H7Rh,0.0,0.0,0.0
BaLiNb,38.2887,33.5829,-4.7058
BaLiNb,51.3184,33.5829,-17.7354
V4SiN5,52.5584,42.4827,-10.0758
Cs3AlBi,26.4396,26.7591,0.3195
Y2ScHg6,11.3182,9.0793,-2.2389
Hg2TeBr,11.7373,11.8703,0.133
PmYSnHg,24.9557,22.1142,-2.8415
CuSe,8.0916,7.5148,-0.5768
Pm5Ni4Pd,16.3165,18.8537,2.5371
Cs2AlBi,26.7595,27.524,0.7644
BaSc2I,8.6463,10.1223,1.476
NbMoSe4,57.6426,49.1778,-8.4648
AsPt3C,68.2969,47.9298,-20.3672
KYMn2,56.963,45.6079,-11.3551
Cs2TmPuO6,13.2635,15.8539,2.5904
RbTeNO2,18.8734,16.0857,-2.7877
Ni4SbRu,17.6008,16.7053,-0.8956
SrAl2Co,19.4584,13.7276,-5.7307
Y3UHg3Te8,36.3779,32.5145,-3.8634
TiIr2I,23.1328,27.2051,4.0723
La6PmBi5,49.9825,41.7983,-8.1842
TbTh2Ru,43.7901,47.3828,3.5927
NaLaAg,35.9148,26.2967,-9.6181
NiSbRu4,23.085,22.1445,-0.9405
LiYHg,18.4256,14.2961,-4.1296
AcHoCdPt,49.7953,45.4103,-4.385
CoPSN,65.6759,57.9849,-7.6911
Tb(YHg3)2,13.647,11.5478,-2.0992
BeCuP,8.8734,7.4598,-1.4136
BaPr2GeO5,7.6158,4.9278,-2.688
Na2NdAs3Pt4,45.6834,34.2112,-11.4722
CuP7,7.0662,6.1697,-0.8965
Sm2Th3Sc2,36.9968,40.4564,3.4596
Sr2MnTe,37.9762,33.6802,-4.296
K2Zn5Au4,22.6389,23.0948,0.4559
K2SrRh,22.0786,17.8861,-4.1925
Sr2GeOs2,18.508,22.7092,4.2012
Ce2YHg6,10.6117,10.267,-0.3447
CsNiB2,10.2832,11.6723,1.3891
VGa3Sb,40.8876,32.8661,-8.0215
Sm3(TmSc)2,20.9683,23.3672,2.3989
RbBa2P,9.996,7.5694,-2.4265
Rb(BaP)2,12.0382,8.0102,-4.028
InPt3,71.8413,52.1304,-19.7109
Dy9Tm11Sc4,25.2012,26.8287,1.6276
Sm9Sc4In11,21.211,20.4632,-0.7478
LiThZrRu,45.1075,43.766,-1.3415
Mn(PdPb)2,42.5951,39.8272,-2.7678
Tb3(TmSc)2,21.642,24.0457,2.4037
YGaHg,19.131,13.7589,-5.3721
Ba2ZnW,9.9451,11.7946,1.8496
ReAgPt2,62.7433,48.9373,-13.806
VP2C,43.3658,32.9562,-10.4096
Dy9Er11Sc4,24.6126,26.2335,1.6209
YHgP2,18.7752,14.46,-4.3152
MnTl2Ag,54.8586,47.9631,-6.8955
RbBe2Cr,2.4954,4.0457,1.5503
ReSbPb2,48.4893,47.1428,-1.3464
LaCePr2,16.9578,15.0728,-1.8851
FeTcTe2,44.6467,40.0953,-4.5513
Sr2ReAu,37.2489,32.579,-4.6699
PaTc2Ir,73.8112,68.256,-5.5552
Mn2TlAg,70.6393,56.9619,-13.6774
Gd2HgC,19.5813,19.6072,0.0259
Ho9Sc4In11,22.4657,21.7037,-0.7621
Y2HgSb,30.6444,27.7663,-2.878
Si2NiBr,11.9566,9.9486,-2.008
Ta2Ir2Ru3,34.7126,34.7904,0.0778
LiBeSeO4,15.2654,13.9539,-1.3115
Dy11Ho9Sc4,24.0515,25.6959,1.6443
TlW,25.8682,36.0387,10.1705
SiNiBr,11.98,10.6847,-1.2953
Dy9Ho11Sc4,24.1281,25.7638,1.6357
PbIO3,29.2664,26.9353,-2.3311
Tb2YHg,13.0569,14.2329,1.176
SrRe2Au,44.2899,40.0424,-4.2475
YGa2As,5.6033,9.3001,3.6967
AsRhSe,37.6176,34.4354,-3.1823
Na2Hf2PaSe6,61.7349,47.8493,-13.8856
Y4ScPd15,23.3065,21.3545,-1.952
UPdSe4,45.8237,41.4592,-4.3645
NaIrRu,28.2641,24.5647,-3.6994
TlW2,34.5584,43.985,9.4265
Ta2Mn,35.9846,37.5155,1.5309
Na2AlAu2,29.0418,28.3068,-0.735
Si2TeP,22.857,20.1461,-2.711
Tc2AgGe,50.7752,43.8218,-6.9535
Ni(SeI)2,27.0555,24.1503,-2.9051
Ni2Ir,18.73,22.4857,3.7556
PrUSe4,35.0787,32.7102,-2.3686
Na2UAs2,27.1374,26.6219,-0.5156
GdAg4Sb,33.0647,26.9661,-6.0987
SrNi2Ru,15.5191,16.6056,1.0864
OsPbSe2,42.4442,41.0125,-1.4317
Zr3Nb4,123.1088,102.7013,-20.4075
SiRuBr2,19.3089,15.1809,-4.1279
La2Hf(TlSe2)3,56.1597,45.796,-10.3637
AcTmCoIr,35.9372,39.3703,3.433
AcTb2Lu,37.8828,39.9208,2.038
Pr6Er2In,0.9059,4.1496,3.2436
CaTlAgN,18.9205,18.5152,-0.4054
RhAuSe4,43.6756,36.4517,-7.2239
Os2PbSe,46.8001,48.0322,1.2321
GdTlRh,42.6902,39.669,-3.0212
OsPbSe2,48.4078,41.0125,-7.3953
Ta2TePt,51.2598,46.9683,-4.2915
V2FeI,70.841,57.1472,-13.6938
Tb9Nd11Sc4,22.1681,23.7855,1.6174
Zr3Al5,38.4025,33.8128,-4.5896
Ga3Hg3I,5.4945,6.4239,0.9294
Zr2TaNb9,125.6851,103.3971,-22.288
Ti2Co2Au,34.0432,30.2878,-3.7553
PuNi5,17.1735,19.6768,2.5033
B3Mo2,6.1153,9.9254,3.8101
Sc2BiPd,19.2906,20.6931,1.4025
OsRhSe4,41.2773,34.9635,-6.3138
Sc3AsS,34.0504,28.0149,-6.0355
RbCo2TcSb,32.5781,26.4783,-6.0998
VTe2I,58.8527,51.6188,-7.2339
YHgIr2,34.417,33.6037,-0.8133
CePaFe2,41.3576,36.4188,-4.9388
ScTcSnRh,78.9802,65.2703,-13.7099
POsBr,20.9886,22.4946,1.506
HfSc2Mo,43.745,35.5636,-8.1814
IrSeN3,20.4531,19.2591,-1.1939
TaFeP2S,35.1873,31.6329,-3.5544
Al2Au,13.7669,17.0812,3.3143
SnMoBr2,31.2667,23.4742,-7.7925
TlSb2TeMo,43.2337,36.625,-6.6086
BaZr2Ag,57.6045,47.1646,-10.4399
YHgMo,27.5595,6.0708,-21.4887
CoMoOsBr2,26.3381,21.4558,-4.8824
NaP2Ir,25.3142,22.149,-3.1652
YTaHg2,30.5036,25.7155,-4.7881
TaMoBr2,19.3703,22.1576,2.7873
Tl(Sb3Rh)4,45.8499,35.0847,-10.7652
BaZn(GeS3)2,31.5962,23.0822,-8.5141
CdGa3I,14.0682,14.318,0.2498
Nd4In12Rh,22.2102,22.3267,0.1166
TaVNi,45.4309,39.6526,-5.7783
Sm4Ag3Au,29.77,28.2792,-1.4908
VHgPd2,40.9898,35.2478,-5.742
U4CdRh12,51.5504,41.376,-10.1744
CaYPb,30.2025,27.2613,-2.9412
RbMnI2,36.4793,30.4477,-6.0315
LiMg2Cu,7.8827,6.1875,-1.6952
CdGaI3,19.209,19.4914,0.2824
Pr12Dy5Ho2,9.4397,8.9181,-0.5216
PrCd5Ag3,20.4873,18.5143,-1.973
CaY2Pb,26.2126,25.4895,-0.7231
TaInAg,30.198,29.9065,-0.2914
La6InAu2,41.9353,31.7661,-10.1692
Ac2La6In,46.4582,35.7446,-10.7136
Sr2InPb,22.1004,25.0376,2.9372
SrCa3Pd,1.7712,8.8849,7.1137
TaIn2Ag,27.1421,27.03,-0.1122
PrZr2CuN4,19.0454,16.3659,-2.6795
LaRe3W,43.3879,42.7438,-0.6441
Ta2InAg,31.3006,32.7423,1.4417
ZrCuRe,49.184,46.5201,-2.6639
LaReW2,33.3604,37.1357,3.7753
Sm4AgAu,29.6267,29.7573,0.1307
CdCoRe2,55.7774,47.909,-7.8684
RbCaSe2,45.7695,36.6134,-9.156
CaYPb,30.1278,27.2613,-2.8665
La2ReW,45.8376,39.8973,-5.9403
SmLuAgAu,33.7365,34.1945,0.458
Ca4YPb5,31.1735,31.6424,0.469
AcPrCuPt,38.9482,33.2247,-5.7235
Tl5Ag3Bi,44.8494,42.6096,-2.2398
ZrVTe2,77.7856,66.4161,-11.3694
Tl(TeI)2,33.8608,33.8309,-0.0299
Sr(LaSb)2,35.7849,27.0826,-8.7023
SmAgPtAu,47.6901,40.559,-7.131
RbTi3Pt,22.3361,17.661,-4.6751
CaYPb2,36.1397,34.5912,-1.5485
ZrVTe2,77.5881,66.4161,-11.172
LiSmCuAu,19.5194,21.7527,2.2333
CeReC,56.0556,49.1743,-6.8813
Tb2ReC3,52.9263,42.982,-9.9444
SbTeMo4,26.6882,25.6644,-1.0238
VGeSb,55.5812,44.7481,-10.8332
LaSmSnAu,35.4574,33.4717,-1.9856
CaYPb,30.1451,27.2613,-2.8838
Y2InSi2,32.9721,28.3494,-4.6227
AcLaTb3Pm,32.3186,32.6191,0.3004
Ge2OsAu,27.1612,30.1252,2.964
CaYPb2,35.5256,34.5912,-0.9344
CaY2Pb,26.2549,25.4895,-0.7654
Pb2CBr,52.8877,44.2712,-8.6165
Ba2CeSnS6,31.8093,24.3723,-7.4369
Sr2SmUS6,38.064,31.6439,-6.4202
BaEr(TeS3)2,44.609,34.8386,-9.7704
Rb2ZrAlF6,19.1272,16.712,-2.4151
Pa2TiSi2,25.3092,27.4193,2.1101
Sn2IrRu2,20.3404,21.4726,1.1322
TcAsIr2,47.677,46.8309,-0.8462
Y5HoEr8,24.0098,25.5686,1.5588
LiHf2Ta,74.0536,58.3088,-15.7449
BaLiW2,22.6545,24.3464,1.6919
LaCo2Ge,12.0707,11.8456,-0.2251
Na3CaW,25.6018,22.286,-3.3157
CaYPb2,35.5447,34.5912,-0.9535
Tb6Pr2In,14.222,17.0342,2.8123
Pr6InAu2,4.4414,6.9795,2.5381
Zr2CuSi4Pt3,52.7054,38.6864,-14.0191
BaHo(TeS3)2,44.5021,34.7281,-9.7741
Ac4LaIn3,41.7255,42.1467,0.4213
NdTm4In15,21.8559,23.1059,1.2499
NaZn2Ag,17.8534,15.0315,-2.8218
FeAg4F7,14.7205,12.6402,-2.0803
RbTiAl,1.3262,3.2571,1.9309
AcMgAs2Rh5,37.4963,29.0688,-8.4275
UTl2BiS6,50.9862,43.3428,-7.6434
Y3Al3In,30.4163,23.8205,-6.5958
Ac2Cu2SiPt4,57.0189,44.4937,-12.5252
Ca3YPb4,31.8828,32.0494,0.1666
Y3Al3Os,32.3485,26.7086,-5.64
Sc2AgS2,39.2366,34.3331,-4.9036
NaZnAg4,26.3359,20.3896,-5.9463
SmPuAu2,47.3355,49.7992,2.4637
ReGe2Mo,25.4396,24.6644,-0.7752
TlInOs2,39.4897,42.1627,2.6729
CaY3Cu4,29.3457,22.1073,-7.2384
Ta2CdCo,46.0454,38.3598,-7.6856
Sr2MnHg,31.61,26.2654,-5.3446
TlIn2Os,29.9413,32.417,2.4757
Ba2YNpS6,43.9787,34.8112,-9.1675
Ba2YPuS6,44.0613,34.6729,-9.3884
K2ScIr,27.3739,20.347,-7.0269
TaGe2Br,17.5259,19.2739,1.748
Sr2PdI,15.9739,17.592,1.6182
SnBiPt3,69.5622,53.0674,-16.4947
SnGeOs3,33.7042,35.8036,2.0994
Sm2ScAl4Au3,20.7706,22.1389,1.3683
Tm6In2Re,29.0286,31.1665,2.1378
CaYCu4,17.3749,14.3274,-3.0475
SnGeOs3,32.5675,35.8036,3.2361
Ti3PbBr,22.8371,20.598,-2.2391
AlAgTe2,29.3987,26.6252,-2.7736
BaNaIn,14.6386,13.9765,-0.6621
SrCaY3,18.4444,15.0084,-3.4361
SnOsPb,27.1562,32.9266,5.7704
SmGd2Sn,25.8285,28.6924,2.8638
Ac2TbSc,40.2554,42.8344,2.5791
TlInMo2,26.0674,28.4713,2.4039
Pr(SbTe2)3,33.7699,30.2855,-3.4844
SmGd2Sn,25.7558,28.6924,2.9366
Y3HgO,30.8771,24.6075,-6.2695
CaMoP2S,34.0005,25.6697,-8.3308
Na2MnFeF6,21.9795,20.7673,-1.2122
SnRuBr3,18.8065,16.7683,-2.0382
Na2DyMnF6,20.9204,20.1682,-0.7522
CdSnTe2,31.029,30.6853,-0.3438
ErMnAu2,55.3882,51.1868,-4.2014
RbMg6W,8.7235,8.3593,-0.3643
KMg6Si,5.6772,5.3017,-0.3755
Mg6CuSi,7.2988,5.9179,-1.3809
V3AgP,85.9868,66.5467,-19.4401
MoBr2Cl,9.1083,8.8576,-0.2506
AgHg2Ir,16.6887,16.952,0.2633
Sr4LiY2(RuO6)2,23.5874,21.3987,-2.1887
Sr4LiY2(RuO6)2,23.5808,21.3987,-2.182
BaZrTa,45.9695,42.2237,-3.7458
Hf3NiOs2,86.2286,67.8277,-18.4009
ScNiH3,0.0,0.0,0.0
Cd(SnTe)2,28.9394,28.2773,-0.6621
RbNa2HgF6,5.7521,5.0725,-0.6796
Y2Hg2Pb,26.6241,22.8119,-3.8122
Sc4Hg2C,11.0627,10.2542,-0.8086
Dy2ScAlO6,29.1254,27.4404,-1.685
Ag2HgIr,26.7593,24.9231,-1.8362
YTm7Hg4,21.9334,22.0702,0.1367
ScAl(GaO3)2,32.356,28.1849,-4.1711
Na2ScCuF6,9.7501,9.3956,-0.3545
ZrTa3,52.2415,52.2147,-0.0269
TePb2W,47.1004,49.6494,2.549
Sc5AlZn4,5.7951,7.7334,1.9383