Formula,E_hull_DFT (eV/atom),E_hull_ML (eV/atom),Delta (ML - DFT)
NaLaPt10,80.4925,55.7139,-24.7786
RbMn4P3,54.2672,41.2231,-13.0441
TcAsIr2,47.9571,46.8309,-1.1263
S2ICl2,27.7271,21.0874,-6.6397
LaBi2Sb,51.628,46.0724,-5.5556
La3BiSb,50.8163,38.7522,-12.064
GaHgCl4,-0.0,-0.0,0.0
Sr2YReNi,58.1124,45.9305,-12.1819
HgTeP2,12.9633,13.0238,0.0605
AlReHg,14.8848,17.4873,2.6025
YAuN2O,35.5297,31.7568,-3.7729
YGeSO2,32.9511,27.7426,-5.2085
NiSbAs,17.6482,13.6229,-4.0253
NiPtRh2,48.4612,35.7834,-12.6778
SrIn4Co,16.7543,18.154,1.3997
ReAg2Pd,26.5521,26.1348,-0.4173
CsUTe2Pd,33.0586,34.8512,1.7926
Pr10Sn4N3,7.5964,6.4877,-1.1087
PmYGeIr,24.3476,25.1302,0.7825
CaMgPb4,36.2847,37.0473,0.7626
NaNdPd10,18.6547,19.8895,1.2348
LiZrNiRu,30.1054,28.7427,-1.3627
Sc3AlTc,45.6135,39.2547,-6.3588
LiPtBr,41.9849,34.1751,-7.8098
ScHgS2N,32.5169,26.118,-6.3989
NiPtRh2,42.6998,35.7834,-6.9164
CoGeMo3,13.9282,16.6846,2.7564
Co2GeMo,9.2657,12.9787,3.7131
Ce(ErTm2)2,29.49,32.5264,3.0364
Sb2MoAs,29.3211,25.78,-3.5411
YTeAs2Br,17.7948,17.9905,0.1957
VInAs2Se,55.2275,47.0458,-8.1817
Mg2CoRe2,15.5121,17.2182,1.7061
SbMo2As,21.5756,22.171,0.5954
Y2AlIrSe,36.5891,31.1636,-5.4255
CsLiAuSe2,29.6368,27.4604,-2.1764
AcYAu4,43.8022,45.9997,2.1975
Mn2ZnCo,60.229,44.2528,-15.9762
NaCdCu4,11.8473,12.0124,0.1651
K2ZnCu,9.7649,9.5954,-0.1695
YAsPtBr2,28.2683,22.7924,-5.4759
EuZnO2,14.4154,11.6658,-2.7496
Sr3Ce2YAs6,17.453,15.1863,-2.2667
YMnRe2Pt,58.4815,48.7231,-9.7584
AgB3Mo,12.0205,11.5812,-0.4393
CeSmTc,40.5061,39.5834,-0.9227
PuVNi2,53.4777,48.4867,-4.991
K(GeSb)2,20.3928,17.44,-2.9528
Na4La2Bi3H2,32.7574,28.706,-4.0514
VHg2AsSe,49.6708,41.3563,-8.3145
BaNa3Sc,16.839,13.6985,-3.1405
CaCu4Si,11.0969,9.806,-1.2909
BaScSi2,26.074,20.8639,-5.2101
Tm4AgHgAu2,30.385,31.3162,0.9312
BeFe4Mo,24.0127,20.9564,-3.0563
YCu(Ni2Ge)2,30.9696,26.0255,-4.9441
La4ReSe,49.805,37.4786,-12.3264
NiPd3Pt7,62.6249,45.48,-17.1449
CsScSn,15.5589,15.5287,-0.0302
La2PrI,29.9481,22.9653,-6.9828
BaScSi,29.3175,24.8771,-4.4404
Y6SnTe3As2,23.0924,21.9978,-1.0945
BaY3Ir,30.6056,28.9834,-1.6222
Ta2NiSe7,35.1146,30.8195,-4.2951
Ca(YSb)2,22.4919,18.3733,-4.1186
ZnCoAu4,38.8512,36.3308,-2.5203
LaRh4Cl,41.9956,29.9574,-12.0381
ZnCr2Ir,21.2681,18.6489,-2.6192
CaZnAs4,10.2717,9.6132,-0.6585
ZrBeO3,9.017,8.5626,-0.4545
Na(AsOs)2,25.8788,27.0392,1.1604
Zn2CrIr,22.1926,19.2681,-2.9245
BaY3Ir,30.2775,28.9834,-1.2941
AsW2,20.8771,29.921,9.0439
Na2Tm(WO4)3,12.864,14.995,2.131
NdTm4Co,25.5036,27.9041,2.4005
TlRu2,22.8108,28.0897,5.2789
Na3Zr(VTe3)2,56.2017,47.6694,-8.5322
Ta2NiSe,31.9994,33.2703,1.2709
Na12(CuO2)7,9.7461,8.7206,-1.0255
SrSb2Pt,47.4476,36.4379,-11.0097
SrSi2Ag,29.538,20.2484,-9.2896
Ta5Ge3H,14.3647,19.3329,4.9682
CeNp2MnN5,28.8938,28.0628,-0.831
TlNi2Ru,20.2631,23.3145,3.0515
Tl4NiRu,38.7934,39.8277,1.0343
CoNiAs4,15.4922,13.5323,-1.9599
NaTlRhPb,44.272,40.2766,-3.9954
NaCr2NiPt,37.1667,29.6684,-7.4983
Eu2YVO6,25.6022,23.6284,-1.9738
ScCr3H8,5.2388,4.5281,-0.7108
ZnSb2Ir,39.2827,32.1811,-7.1016
Cd4PPb,22.4658,23.6665,1.2007
La4PtCCl2,44.5112,30.7344,-13.7769
ScNi4Mo,19.2886,18.3517,-0.937
CePm3N4,11.3382,14.1902,2.852
Ce4Pt,32.0435,29.8921,-2.1514
GeBi6,48.7662,49.3159,0.5497
PrBeAu3,26.8841,28.8976,2.0135
Np8HRu3,51.1388,52.9565,1.8177
GeBi,5.8762,12.6555,6.7792
Pt2RhBr,61.3635,43.5225,-17.841
V(H3Os)4,17.7146,17.2659,-0.4487
Zr5HPd3,52.721,45.787,-6.934
Ti3BePb,13.9497,15.1536,1.204
PtPb2W,59.0885,54.0714,-5.0171
Hf2BiIr,87.9082,71.1859,-16.7222
Er2Cu(H3Pt)2,24.2561,19.9466,-4.3095
In2Ge2Pb,18.7916,20.5799,1.7883
CaSiRh4,39.3407,27.3789,-11.9618
VZn2Pb,49.6174,43.3765,-6.2409
CdCoPd4,17.3865,18.4396,1.0531
CoSb4Pd,30.1053,23.9442,-6.1611
CoOsRh,32.4096,32.0755,-0.3341
Ba6Nb9CoO30,26.0955,21.9501,-4.1454
AcPr(ThAs2)2,27.5649,30.5028,2.9379
YCuRh4,44.5379,32.1205,-12.4175
La2Zr5Sb3H2,60.0838,48.4364,-11.6473
CsPaI6,27.5875,27.7533,0.1658
Be2VSe,39.9969,33.6637,-6.3332
LuAl4Co,11.4989,10.1137,-1.3852
Ca9Sn4H,8.5817,9.8147,1.233
Ca2InSe,36.2529,30.2177,-6.0352
YSb2As,28.0062,24.115,-3.8912
ZnSb2Mo,28.6125,24.9584,-3.6541
NaCa3(LaSe3)2,55.0492,41.7617,-13.2875
BePbSe2,37.0858,34.3333,-2.7525
Pr2Ta2Si2H,12.8671,14.3829,1.5158
PmPr4Co,2.316,4.3842,2.0682
Tb4PrCo,17.9331,20.5411,2.608
Pr4CoRh,-0.0,0.7305,0.7305
CaInSe4,50.0657,40.245,-9.8206
LaY2NiBi,71.4981,60.8083,-10.6898
NaNi2OsAu,26.5643,26.5756,0.0113
CrCu2Sb,19.4796,15.5516,-3.928
InFeTc2,47.5109,40.6022,-6.9087
UNi10Pd,12.3759,14.3834,2.0075
Be2PbSe,25.456,24.3394,-1.1167
Tb5Si3H,13.5793,13.9248,0.3455
YErTmSc2,11.6702,15.3126,3.6423
BePbSe2,37.1532,34.3333,-2.8199
PrAlH4,-0.0,-0.0,0.0
Na(CoAu)2,23.8054,24.5048,0.6994
FeSbPt4,73.9443,53.1127,-20.8316
CsTe,23.9598,24.7717,0.8118
PaZn4Fe,18.3195,18.5212,0.2018
YbFe7,4.7358,6.2838,1.548
ScNbCd2,46.3689,41.6882,-4.6807
Zn(CrGe)2,4.0399,4.8531,0.8132
YScW2,34.775,29.135,-5.6401
CoSb4Pt,41.1358,31.0198,-10.1161
ZnCrGe2,10.1591,10.2568,0.0977
In3Tc,34.0553,31.5746,-2.4807
Cr2Ag,11.0984,8.7204,-2.378
ScCr3H8,5.2252,4.5281,-0.6972
ScNi4W,16.1509,14.4195,-1.7314
TlFe2H7Ir2,11.7139,13.1599,1.446
NpBiSb,49.9241,49.9579,0.0338
Ag6I,30.7759,23.7667,-7.0091
In3Tc,38.3582,31.5746,-6.7835
Sr2Cr,15.3105,12.8784,-2.4321
CeU3N4,27.8958,31.2036,3.3078
CoPtSe4,47.7527,38.0971,-9.6556
ScCrH4,2.2382,2.4063,0.1681
VSnAs2,42.9507,37.4447,-5.5061
CoReSe4,39.6197,35.0946,-4.5251
CsLi(AuF4)2,14.7443,15.6359,0.8916
AcPmNi10,12.3624,14.2472,1.8848
CoRuSe4,30.1372,26.6401,-3.4971
Zn(H3Os)2,10.6123,12.2434,1.6311
Na4Nb3O10,29.1588,23.8554,-5.3034
AlMoAu4,38.3516,37.8835,-0.4681
Na4Ta3O10,11.2909,10.3009,-0.9899
Mn(H2Ru)2,13.2402,13.5667,0.3266
BaSr2La,19.8027,16.8131,-2.9896
Li3ICl,8.4238,7.3818,-1.042
P2OsN,33.4066,27.9164,-5.4902
Mn2Ru2Rh,56.302,44.4578,-11.8442
Zr3CrH8,24.9935,21.2136,-3.7799
Nb3Al2H,50.299,43.8381,-6.4608
CsPaI4,25.5679,26.5039,0.936
BaSrLa2Fe,32.7091,23.097,-9.6121
Lu12Mn3H5,19.9832,18.7806,-1.2026
CeIBr3,11.1888,13.1388,1.95
K2LiSi2,12.4837,10.6487,-1.835
Sr2Pb2I,27.1761,29.6671,2.491
CoSn4Au,23.3448,23.7884,0.4437
CoMoPt2,49.958,38.5033,-11.4546
SmHo4Co,24.0192,26.4178,2.3986
Zr8H2C3,73.9531,59.0696,-14.8835
Cd5P,16.9226,17.7945,0.8718
CoMoPt,36.9912,31.2981,-5.6931
PuCuBrO4,6.6575,6.9885,0.331
SrBePt3,54.1793,36.6029,-17.5764
Sr2Re2I,39.1905,30.2622,-8.9283
Y2ScTl2,21.4443,24.8499,3.4055
Th4CoTc,52.5333,54.0873,1.554
CoTe4Ir,36.1411,36.3198,0.1788
Tm4CoTc,30.811,31.3715,0.5605
PtPb2W,58.8568,54.0714,-4.7854
Tm4CoOs,21.9728,26.0639,4.0912
Pt2W,72.8364,56.8239,-16.0125
VPbW3,62.5839,59.1552,-3.4286
NaTlTcCl2,35.6662,31.062,-4.6042
YInNi,45.1643,41.9659,-3.1984
LiHf(ScS3)2,55.6951,43.1198,-12.5753
CeHo2Re,31.1103,34.6718,3.5615
Ba2Sc(SbS3)2,41.9644,32.4325,-9.5319
In2Ga2Au,20.7951,21.9948,1.1998
Tm(H4Ir)2,10.609,11.923,1.314
MnCo7H12,7.444,7.1059,-0.3381
LiY2TlP,26.9611,23.5147,-3.4464
SrFe3Si2,9.4937,6.8351,-2.6586
PuH12Ru5,8.6635,9.6607,0.9971
YIn5Ni,37.6491,34.9318,-2.7173
PuH12Ru5,8.6487,9.6607,1.012
ZnSi2Sn,14.2104,11.0312,-3.1792
ScBe2Ir,20.0858,16.9308,-3.155
Ce2H5Ir2,14.7855,16.5812,1.7957
AsHF2,0.0,0.0,0.0
Tm(H4Ir)2,10.528,11.923,1.395
Cd2GeRu2,10.9865,14.8572,3.8708
P2OsN,33.5978,27.9164,-5.6814
Ni2PtBr,29.667,23.6423,-6.0247
SrScRh2O,73.8806,60.2894,-13.5912
CeSm(NiSn)4,24.703,20.21,-4.493
Np6HPb2,58.7282,60.3917,1.6635
PrYInNi,47.5699,42.1861,-5.3838
Y2InNiN,65.1209,56.143,-8.9779
CaVTe2,54.2998,47.2008,-7.099
Cr3Rh,10.1218,10.3474,0.2256
Ca2Co3Sn,14.9418,12.9165,-2.0253
Ca4BeIr,21.5315,15.2765,-6.2549
Mo4PRu,21.6253,19.1993,-2.426
Co2TcNi,46.4896,37.8933,-8.5964
Tl2BiAuBr6,26.6496,27.536,0.8864
NiMoCl3,21.1708,17.5589,-3.6119
CoTc2Ni,68.1354,54.7239,-13.4115
TbCrH6,4.3089,5.5331,1.2242
Y3In3Si2Ni,49.1115,42.1603,-6.9512
YIn2NiPb,51.506,47.2846,-4.2213
Er2Ga10NiPd,14.4393,14.1806,-0.2587
ZrPW2,102.1514,87.5834,-14.568
ScV4Sn,95.4946,74.3594,-21.1352
YNiPb2,63.1966,59.3209,-3.8757
Co(BMo)3,0.0,6.9541,6.9541
ScInSi2,25.8946,22.577,-3.3176
Ga5Sn2,12.0118,13.1161,1.1043
PrSbSe2,33.7515,28.0624,-5.6891
BaAcGd,31.404,33.5501,2.1461
Dy3YTm5,23.1136,26.1443,3.0307
Mo3PI,22.0983,19.6291,-2.4692
Ca2Sc2Sb,15.1392,9.8688,-5.2704
Y2Ni2Pb,76.7899,67.6607,-9.1292
K2TiTe,14.6445,15.5651,0.9206
Ta2H4Ru3,13.5131,17.0259,3.5129
TcAs2Ir,39.0732,37.2992,-1.7741
Sc2Sn2BRh4,40.2868,31.1719,-9.1149
Th2Te2H5,23.7173,24.225,0.5077
Y2AlV2,63.0903,49.2987,-13.7916
Pa2Ge,39.4327,45.6287,6.196
Rh2AuSe,48.477,39.6225,-8.8545
Y2TlNi,75.6754,67.4631,-8.2124
RhAu2Se,48.2993,43.0372,-5.2621
SrTi2Mo,5.7794,8.4076,2.6282
GeSe2,31.7213,27.2596,-4.4617
Tc2Ge,56.3284,49.1578,-7.1706
PtPbW2,55.5573,51.9386,-3.6187
TaCoOs4,49.4552,46.4095,-3.0457
Be2ZnHg,8.0513,4.7499,-3.3014
Na5Au,26.498,22.5851,-3.9129
Ta2Ga,0.0,-0.0,-0.0
Cu(PtBr)2,42.3457,31.0301,-11.3156
NdTmBr3,12.1615,16.5253,4.3638
ScW2Br,25.7645,27.4258,1.6613
Y6TlNi,44.9612,41.8487,-3.1126
TlTc2Ni,61.2195,54.3533,-6.8661
InGa2,12.3064,13.8188,1.5124
Cu2Pt2Br,43.784,32.3612,-11.4227
BiRuRh2,47.4354,39.0165,-8.4188
CaCo3Sb,23.4195,17.0447,-6.3749
Tm6NiIr3Rh2,34.3227,33.6526,-0.6701
LaHoCo4,17.2556,16.7628,-0.4928
Pt2PbW,67.9356,56.6296,-11.306
Ac2PuScS6,49.2217,42.6534,-6.5683
Ba2PuScS6,37.2247,30.4819,-6.7428
Ac2ScCdS6,46.0183,38.9154,-7.1029
ScPb3Au,42.4192,43.4143,0.9951
InFeCo2,22.1488,18.4251,-3.7238
Ho(Re2Sn)2,32.7713,35.8318,3.0605
PaAsBrO4,4.1465,7.6451,3.4987
Y2Si2Pd,31.546,27.641,-3.905
CaAg4Rh,29.9101,22.8968,-7.0133
In4FeCo,21.9771,20.2416,-1.7356
KYBr,11.8857,13.6996,1.8139
Sc2PbAu2,31.0101,32.9464,1.9364
Sc2CdRhO,65.5266,55.7881,-9.7384
Sc2InSi2Rh5,35.9512,27.0914,-8.8598
ScPbAu,29.7538,33.2044,3.4506
SrGd2Al,18.956,21.2413,2.2853
MnOsRu4,34.8923,33.8763,-1.016
ScSb,22.6634,20.288,-2.3754
POs3N,43.6386,39.963,-3.6756
Ag2SnSb,32.1725,26.1425,-6.03
YTlNiS3,58.0894,48.2458,-9.8436
IrC3Br,50.9695,38.2609,-12.7086
Na3Pb2,33.3992,31.3282,-2.0709
Ag(SnSb)2,29.0627,24.0094,-5.0533
LiRePb4,42.7829,43.5248,0.7418
Cs3SrSn,22.0954,22.3534,0.2579
Cr2IrC,37.7988,35.5476,-2.2512
SrGaSn2,15.5583,17.4727,1.9144
NiOs2Rh,28.7164,30.2397,1.5233
Zn4CuRu,9.4521,10.9843,1.5321
Sc6SnS8,47.5151,39.7341,-7.781
Tc3TeMo,71.0676,58.8451,-12.2224
YPa2CuO8,17.5349,18.9257,1.3907
NaCoAs2,12.7154,12.5049,-0.2105
Ac2ScInS6,45.6628,38.7012,-6.9616
Ca3SiI2,15.0328,13.2582,-1.7746
YTm6In,27.7615,29.8318,2.0702
DyPaNi10,12.6968,14.7086,2.0118
TcTeMo,53.4733,46.0846,-7.3886
NdEr4Co,24.6548,27.0444,2.3896
Sr3RhBr,17.5737,14.7496,-2.8241
ScNiW4,29.2343,33.0596,3.8252
Ta2NiIr5,36.5464,39.9713,3.4248
Ca4TaBe,15.6954,13.7438,-1.9516
NaPb4,47.0138,47.2337,0.2199
Co4NiPd,22.4633,18.351,-4.1122
H4Ru2Au,7.0674,9.9896,2.9222
YSi2PdPt5,62.8601,45.1167,-17.7434
Na(ScAu)2,20.7873,22.8413,2.0541
POsN3,40.4836,31.4165,-9.0671
AcY2Sn,38.6868,34.8985,-3.7883
YZnCl2,41.9993,39.5413,-2.458
Cs2KDyBr6,13.8736,14.8267,0.9532
EuCuPb,29.078,30.7216,1.6436
NpNiAs,16.0013,19.9829,3.9816
Ga3Se4,30.663,25.8832,-4.7798
Rb4H4Rh,6.1834,5.1238,-1.0596
RbSc(SnS3)2,37.2307,29.3696,-7.8611
Th3(NiAu)2,43.0136,46.2457,3.2321
NdH8Pd3,6.3916,7.7926,1.401
CsSr2Sn,17.8317,19.4708,1.6392
Th2Sn2H5,14.5606,17.1849,2.6244
Th2Sn2H5,19.0031,17.1849,-1.8182
Y2PuUP4,35.3488,31.8154,-3.5333
RbCuHRhSeS,28.1679,21.3253,-6.8426
MgMnBi2,49.4451,45.1087,-4.3364
In4WCl,21.1198,22.3566,1.2369
Pu3Ga4,35.6747,37.1169,1.4422
YBiPt4,70.4272,53.2146,-17.2126
Cu2TcHg,27.0279,23.8743,-3.1537
PrInBi,18.2572,21.5848,3.3276
La4MnRh,59.9123,41.8619,-18.0504
PmNd4Y2Sc,21.9738,21.8808,-0.093
Y(AlH3)4,5.1915,4.4222,-0.7693
HfSc3Cr,41.057,30.32,-10.737
Nb(H3Ir)2,25.539,24.1578,-1.3812
Nd2ScMnS6,45.0445,35.8026,-9.2419
Nd2Ni3Ge4Os,19.4135,17.4253,-1.9882
In4Ga3,14.9725,16.2956,1.3231
Zn5CuNi6,6.6375,8.4174,1.7799
YNbNiOs,87.3347,77.1595,-10.1752
AlHW2,20.0394,25.14,5.1006
MoWCSe2,45.1962,36.8264,-8.3698
SmNpSe3,39.4631,38.2432,-1.2199
Hg2SeI2,17.4817,16.3042,-1.1775
Ba3AuBr,7.8397,9.7825,1.9428
NaHf2CrF,68.039,49.2804,-18.7586
TmSc2Ag,18.014,17.8068,-0.2072
Hg3AuBr,7.6153,9.4523,1.8369
CsPdBr3,11.4973,12.7342,1.2369
YTiNO2,25.7349,22.5447,-3.1902
TiVP,45.1668,38.1112,-7.0556
Sc5Tc(SnRh)2,39.6012,31.1564,-8.4448
PmYSeN,47.7657,43.0672,-4.6985
Tb3AgC,17.7267,19.2027,1.4761
Ti3VP,20.9894,20.0201,-0.9693
Cs2PaIBr6,15.7139,18.1561,2.4421
NdYNiOs,58.0419,54.4727,-3.5692
SrZrSi,57.5409,44.2184,-13.3225
Na2SiBr,16.2379,13.3882,-2.8497
KBe2,2.899,5.3881,2.4891
TmSc4Ag,8.3641,9.6486,1.2845
NaLi2P2Pt,28.1634,18.3691,-9.7943
LaSc3Br,17.3504,13.796,-3.5545
Ho(AlH3)2,3.8111,5.3867,1.5756
BaNaLiTl,20.8275,19.7305,-1.0969
AlPtPb3,50.7623,45.7709,-4.9913
TmSc4Ag5,20.4738,18.0222,-2.4516
Y4AsOs,20.6788,20.7164,0.0376
Hf3GaC,90.2394,65.428,-24.8114
Er10Ni28As19,23.4959,18.8736,-4.6223
Al2PtPb,37.1068,31.9519,-5.1548
CeHAu3,28.625,31.0594,2.4343
RePW2,87.5613,79.1277,-8.4336
MnZn4P,22.5642,19.5623,-3.0019
NpH8Pd3,10.4188,11.4903,1.0715
Ac2PmScS6,45.2205,38.8691,-6.3514
Yb2SnRh2,31.9988,28.5887,-3.4101
PtRh,69.2908,50.753,-18.5378
Sr2GdTl,26.7026,28.0972,1.3945
KRb3Cl6,4.6199,4.7714,0.1515
YbSn2Rh,30.9224,29.1558,-1.7666
ScOs4Au,36.8162,40.3961,3.5799
ZrBe2Ag,33.7712,28.1481,-5.6231
Nd3NpNi34,9.1998,10.4736,1.2738
TmNpNi17,4.4804,7.4795,2.9991
YbSnRh,24.0906,23.8119,-0.2786
PtRh,70.3909,50.753,-19.6379
GdNi3,0.0,2.3164,2.3164
Th2Ni2Au,37.7806,41.4,3.6194
Rb2Cd2Cl5,5.7435,6.1,0.3565
AgHPtPb2,45.2682,38.922,-6.3462
Zr2BeAg,57.7323,47.5606,-10.1718
Tm5(AlPb)2,24.4214,27.8337,3.4123
Tm3Ni2Sn3Rh,28.4639,25.0587,-3.4052
Hf2TaNi9,31.1972,26.9486,-4.2486
PtRh,62.6991,50.753,-11.9461
Na2MnV,71.8271,59.5955,-12.2316
ErThNi10,12.7484,14.8895,2.1411
Al2V5Mo2,79.8879,62.8079,-17.08
Nb2AuC,89.9166,76.1434,-13.7732
Hf2Co3Re,57.2899,45.7358,-11.5541
Rb2LaBr6O,17.5131,17.2845,-0.2286
Na3Y2TlO6,23.7139,21.649,-2.0649
Co2Re2Pd,15.1315,19.9672,4.8356
VAs2C,46.7104,36.6978,-10.0126
V3AsC,91.1768,70.7079,-20.4689
CaZr2,61.8017,53.7776,-8.024
AlTcAs,45.6813,36.206,-9.4753
UB4W,8.7887,15.662,6.8734
KAg3I4,24.3509,22.037,-2.3139
YCdAg2,23.7217,21.1149,-2.6068
UCo4B,7.3192,12.0504,4.7312
CaBeCo4,16.3496,11.5749,-4.7747
KCd2CoHg,11.3397,11.9642,0.6245
Al2CdBO6,0.0,-0.0,-0.0
LiMn4Si,72.5501,55.4192,-17.1309
ReSbP2,43.8426,35.0268,-8.8158
ZrSb4Cl,47.2026,37.4186,-9.7839
CrBW,5.7317,13.5906,7.8589
SrZrTe2,48.2439,44.7575,-3.4863
SbPOs2,33.5679,33.9661,0.3982
Pr5(Nd6Tl)2,19.655,20.8798,1.2248
SbPOs2,33.6792,33.9661,0.2869
Tm2Fe(PH2)2,14.3726,14.2783,-0.0943
PIrCl4,16.7031,14.4555,-2.2476
Sm2Ni2Pt5Au,48.8448,37.6463,-11.1985
FeRuSe4,47.8628,36.6489,-11.2139
Ta3CN,32.3929,33.8621,1.4692
Tl2Ge2Pb,34.7194,35.8419,1.1225
TlGaGe3,18.4212,19.1753,0.7541
La2NiW,39.3224,31.1234,-8.199
Ga2GePb,19.7784,21.154,1.3756
FePtAu2,46.5218,41.3426,-5.1792
AgCO3,12.1295,6.6191,-5.5105
TlGePb2,41.4755,43.1408,1.6653
Tl4SiMo,39.9828,39.6352,-0.3476
MnIrRu4,38.0158,33.7901,-4.2257
BaCaRu4,12.028,14.6161,2.5882
LiHg4Pt,16.5329,12.0756,-4.4573
ZnCuPb4,38.0105,38.5336,0.5231
La2CoRe,31.3028,26.969,-4.3337
YScSb2Te,31.4928,26.6723,-4.8205
Er2BPd6,17.6276,19.6984,2.0708
BRu,1.8974,7.6823,5.7849
Y2ZnI,16.6081,16.1292,-0.4789
BiAsC,37.1169,31.5839,-5.533
Ir4AuCl,38.6781,40.4211,1.743
Ac2CrBO6,13.1366,14.0546,0.918
PaCu2BO6,11.3181,10.2671,-1.051
Y2PBr2,20.1909,17.8641,-2.3268
Y2Al12Au7,24.0689,22.9361,-1.1328
V3SbC,89.8144,69.6468,-20.1676
CsGa2GeOs,18.3799,19.9716,1.5917
Tl4ZnNi,36.8578,37.6645,0.8067
Sr3SbCl3,26.4739,22.8307,-3.6431
CaReRu4,18.7083,22.0056,3.2973
NaEuGdGa,22.5301,23.1073,0.5772
YGaAs2Br,13.2862,11.7477,-1.5385
Hg4IrCl,8.4869,9.3181,0.8312
TePtBr3,35.2547,28.1983,-7.0564
HfThNi10,22.3084,20.6354,-1.6729
Al2Zn2Te5,25.4946,25.1434,-0.3512
SbMo4Cl,21.0651,19.8517,-1.2134
Cs(TeP)2,23.1697,23.3885,0.2188
Th3PtC,60.9458,55.6355,-5.3103
SiBiC2,42.3998,33.5305,-8.8693
Cu2P,7.4039,8.3034,0.8995
ZrSiOs2,48.9026,45.9616,-2.941
Fe5NiAs,26.3629,21.0429,-5.32
Ta4Os3,38.7091,42.8176,4.1085
LiPtN2F,21.3692,18.3027,-3.0665
Na2YErSe4,33.9535,29.6047,-4.3488
CoWI2,20.3051,22.0477,1.7426
Ta3Os,37.7863,43.4396,5.6534
Ta2AlAs2,21.8467,21.8918,0.045
AlP2Se,31.0761,24.5015,-6.5746
Hf3CS,99.7945,69.6555,-30.139
Na3YEr3Se8,35.8098,30.582,-5.2279
TcAsIr2,47.7136,46.8309,-0.8828
TcAsIr2,47.5358,46.8309,-0.705
TaOs,5.4468,20.9807,15.5339
TaOs3,5.7755,19.494,13.7185
La3MgAs,35.6981,24.1262,-11.572
TaOs,27.9798,20.9807,-6.9991
Y4ErPd5,30.4257,26.3566,-4.0691
CoReNi,43.6757,37.1431,-6.5326
BaPr3Ir,5.6245,7.292,1.6676
LiNp2ScS5,42.9466,36.8319,-6.1147
Al5Ag3,13.6379,11.6442,-1.9937
BaLaB12,3.7783,4.4123,0.634
PuInNi10,14.4392,14.6375,0.1984
Al5(ZnRe)2,22.1283,17.2253,-4.903
Pr3SmIn3,5.5613,9.2197,3.6584
CoRe2Ni,42.2965,38.6286,-3.6679
ZrAlW,47.289,44.1962,-3.0928
NbAg2C,67.9528,52.7675,-15.1854
Sr4LiTc,25.5883,23.0346,-2.5537
ZrAl2W,35.6742,35.4457,-0.2286
ZnCoPt4,66.801,45.4203,-21.3807
KCoO2,0.0,0.0,0.0
YPuTa,54.5143,52.7074,-1.8068
TlNi3Rh,25.3923,23.1433,-2.249
Tb(NiPt2)4,58.7128,42.8575,-15.8553
TlNi2Rh,28.2691,26.441,-1.8282
Y2BPd,66.4196,54.3452,-12.0743
CeNbNi2,50.0684,43.2891,-6.7793
ZrAl2W,35.6766,35.4457,-0.2309
YNiAg2,57.2232,47.7858,-9.4374
Co4MoAs,14.4337,13.8423,-0.5914
ZrAlW2,44.7375,44.1196,-0.6179
SiAg4Ru,28.9938,21.7937,-7.2
BeAsBr2,9.4185,8.1282,-1.2903
LiTh(AsAu)2,29.5681,31.9768,2.4087
Ac4CoAu,47.7256,49.7697,2.0442
CaY2Nb,45.024,36.3118,-8.7122
Y3Pu2TaN6,45.0067,41.6768,-3.3298
MoAu4Cl,37.2014,36.7958,-0.4057
SiRuRh4,45.771,32.7659,-13.0051
AlCuOs4,30.8784,33.2107,2.3324
ErWBrO4,0.0,0.0,0.0
CdRuBrO4,4.9716,4.158,-0.8136
Co2MoAs2,16.5334,14.583,-1.9504
Sr4ZnCo,16.8626,13.8218,-3.0408
NaSbN2,12.5925,12.5317,-0.0607
CuTcBrO4,11.1854,8.9381,-2.2473
BeAs2Br,11.9182,9.8712,-2.047
PmScRhAu,32.3346,29.7008,-2.6339
SmNi(TeO4)2,15.1901,12.6344,-2.5558
ScCu3Pb,28.8945,25.5572,-3.3373
EuPbAu2,43.3097,45.058,1.7482
CoMoAs2,14.9534,14.6477,-0.3057
Tl4ZnCo,41.5697,38.5135,-3.0562
BeAs2Br,12.1818,9.8712,-2.3105
Sm3PtC,25.1901,22.9092,-2.281
Be2Re,6.673,15.0607,8.3877
Ac2ZrScS6,59.2625,50.061,-9.2015
BaZrTa2,44.0921,42.6167,-1.4754
Tm3Tl3In,33.9869,36.2416,2.2548
NaSiAg2,22.9959,17.0893,-5.9067
Pu2PbSe,60.522,59.9285,-0.5935
Be(AlMo)2,18.0509,13.648,-4.4029
TbTm(NiAs)2,26.5929,23.409,-3.1839
Sr5Cl,17.5039,17.2855,-0.2184
MnNbVNi,119.4117,98.7414,-20.6703
Th2NiGe4Ir3,31.5644,32.7796,1.2153
Er2TmCdRh4,37.3137,30.7229,-6.5908
AcGa2Ni,16.8031,21.3503,4.5472
BaZr2Ta,59.2381,51.6885,-7.5496
CsZrN2,30.7683,29.6744,-1.0939
Na(Al2Ag)2,14.1737,11.9883,-2.1854
Tm7TlIn5,27.836,29.1382,1.3022
Zr4AlTl,74.7756,63.3579,-11.4177
Y4BeTl,20.6961,19.766,-0.9301
Zr(NbS2)3,78.2377,60.3561,-17.8817
AcNd(YS2)2,41.0228,34.7335,-6.2892
Ga2BrO2,28.9056,24.088,-4.8175
Na(AlAg)2,15.5798,13.3658,-2.214
NaAlAg4,25.5921,19.8972,-5.6949
BeCr4Os,17.0801,14.206,-2.8741
CdSbPb3,44.9195,43.0418,-1.8778
TbPbAu4,44.355,46.2879,1.9329
NaCa2Te,16.1165,16.7776,0.6611
ThB2Mo,20.6146,25.0243,4.4098
Ti3PdC,9.8324,11.7722,1.9398
Cd3Au8,39.5116,40.5681,1.0565
V3GeC,82.4276,64.7371,-17.6905
Na3ZrSb,44.6215,35.2716,-9.3499
CeAlSb,8.5183,10.8323,2.3141
BeCr4Rh,14.2688,12.1858,-2.083
LaTaNi10,12.3751,12.7951,0.42
Cu2SeCl,17.072,16.5726,-0.4994
CrTc2Pb,62.2928,54.6066,-7.6862
GaReTc,46.9485,44.7734,-2.1751
Co2TcPt,48.6854,39.6427,-9.0427
CaTc2,56.7449,50.8487,-5.8963
BaAg2BSe4,31.4112,25.7452,-5.666
K2CrMo,13.9064,12.8855,-1.0209
K2Pm(OsO4)3,8.8912,12.1555,3.2643
Th3ZrSn5,37.6227,38.7121,1.0894
Ac4CoCu,51.0544,49.3425,-1.7119
Hf4CoCu,108.229,77.334,-30.895
MnPb3Au,61.5747,57.1047,-4.4701
LaCu4Si,16.1871,13.4874,-2.6998
SeBrO2,11.7984,10.5126,-1.2857
KSc4Tl,14.2626,15.1276,0.865
Co2TcPt,48.7749,39.6427,-9.1323
VSbP2,39.4312,32.4667,-6.9645
YErTmTh2,35.9316,39.5448,3.6133
Zr4TlCo,75.7965,64.1933,-11.6032
CoTc2Pt,70.2878,57.2817,-13.0061
K2BeC,18.3311,16.8556,-1.4755
YEr3(Tm3Th)2,34.8565,36.6622,1.8057
BP(Pd3Au)2,20.3214,22.0494,1.7279
KSc5,6.7469,7.7706,1.0237
ZrNiOs2,47.355,48.4752,1.1202
Y3Er7Tm,25.5387,27.3719,1.8332
LaThNi10,14.6319,15.0598,0.4279
HfSeNO2,38.9513,28.9383,-10.013
BaPm(AsPd)2,12.6212,14.5585,1.9373
Ca(CrTe2)2,32.7485,28.9121,-3.8364
GaCoI4,14.985,17.1751,2.1901
Ca4Cr2Te,22.4911,18.076,-4.4151
Ca2CrTe,24.7654,21.545,-3.2204
Ca3CuAg,9.187,7.8559,-1.3311
BaAgAs,13.6244,12.1148,-1.5096
FeRe2,42.1636,39.2782,-2.8853
BaMnAg2,40.5861,31.3473,-9.2387
Tl2CrSb,35.1303,34.1039,-1.0264
KRu3Pb,25.2102,26.2588,1.0486
Ni4PtCl,20.275,17.0041,-3.2709
TlCu4Si,16.3833,16.3009,-0.0824