Formula,E_hull_DFT (eV/atom),E_hull_ML (eV/atom),Delta (ML - DFT)
NaMnTc2,79.5804,69.474,-10.1063
NbSe2Cl,60.025,50.6373,-9.3878
RbGaTe2,23.4032,23.0382,-0.365
Y2TaNiAs,67.945,58.1939,-9.7511
Zr3SnC,74.6989,58.4865,-16.2123
Pm3Th2ScAs6,25.4781,25.8712,0.3931
ZrSc2SnC,43.6121,33.6111,-10.001
CdAg,14.9042,14.6136,-0.2906
Zr2ScSn2,48.2492,39.9346,-8.3146
ZrSc2Sn,39.8813,32.4718,-7.4096
Zr2ScSn,63.2019,50.0961,-13.1058
Al(GeC)2,37.4394,29.2505,-8.1889
AlAgPt2,52.821,37.3541,-15.467
Cd7(AgSn)2,21.7955,21.2018,-0.5937
CaEu3N,17.8141,19.1026,1.2885
CdAg2,25.2028,23.2537,-1.9491
InRePb2,42.2107,44.1276,1.9169
Co7Au,11.9297,13.8425,1.9128
FeTcPt2,68.4761,51.4234,-17.0526
Al2CoAu,26.8649,22.7348,-4.1301
Ag7Sn3,28.1842,24.0985,-4.0857
Tb2MnAg,45.913,41.46,-4.4531
TiV3Cd,84.3438,66.3819,-17.9619
Ce3Cu2Ni7,17.0222,15.6048,-1.4174
TbMnAg,41.527,37.279,-4.248
Tl2InPb,43.522,44.5461,1.024
Y3(ErTm3)2,26.1147,27.672,1.5573
TlSiBr,22.5267,21.4285,-1.0982
AcCo(BO3)2,5.6757,8.9847,3.309
CaIrPd,15.2266,16.4983,1.2716
Mo3PdPb,27.8943,26.7087,-1.1856
TlSi3Br,22.6074,17.8951,-4.7123
CuSb2TeRh,38.1068,30.2522,-7.8547
Tb2Pr2Sb3,18.954,17.6496,-1.3044
ThPa2Hg,50.2493,53.5688,3.3194
TaTi2SnP,23.5096,18.5428,-4.9668
KLiS2,26.9787,19.4717,-7.507
CsPm2OsO8,8.3598,10.6755,2.3157
Tb2VGa5,27.6405,24.9638,-2.6766
LaPaPb2,55.8924,53.3282,-2.5642
PaTlSe4,51.0629,46.6484,-4.4145
NaTl3InSn,33.6279,33.9319,0.304
Li3SI,15.0221,12.5097,-2.5124
YEr3Ru,21.0773,20.9139,-0.1634
Y2ErPd2,25.4149,22.8493,-2.5655
ScPd3Pb,7.7219,9.6509,1.9291
YErMo,30.5259,24.2615,-6.2645
Y4Er4Tl,24.8101,27.1579,2.3478
YEr(ScBi2)2,33.2256,35.3021,2.0765
FeReTc,58.9889,53.9784,-5.0105
RbV2PtSe8,60.816,47.0992,-13.7168
Tl3W,43.8129,46.6058,2.7929
Nb2WI,86.9781,75.6072,-11.3709
K(EuRh)2,33.1796,27.5246,-5.655
Ba2SrLu,11.9337,13.6392,1.7055
Ba2CoHgGe,4.8558,4.074,-0.7818
Tb3Nd6Y2Er,23.7395,25.4459,1.7064
TbCe2(PuS2)3,50.8705,44.0585,-6.812
Pm3(ScAg)2,22.734,21.3473,-1.3867
MnCdIr3,52.0951,49.6852,-2.4099
Ho3Ni7Ru2,13.0346,15.8408,2.8063
RbZr(InCl4)2,13.1269,12.6584,-0.4686
ZrPdRu2,36.7832,34.2614,-2.5218
AlAsP,30.8468,25.2311,-5.6157
Pm3(Nd3Er)2,25.8225,27.7199,1.8974
FeRe2Tc,54.2639,51.5375,-2.7264
Eu2Mn2O5,67.5052,60.9665,-6.5387
BaSr3Zn,10.5109,10.8537,0.3428
Nd3Ni7Ru2,12.241,14.9796,2.7385
YReHg2,22.8662,21.316,-1.5501
Pr3(Sm4Tm)2,19.2287,20.708,1.4793
Pm3(ScCd)2,19.1723,19.7434,0.5711
La3Tb2Sm3,35.4313,29.7638,-5.6675
AcNdYEr2,28.2094,31.3587,3.1493
In2CuI,14.7617,16.6166,1.8549
AcPmNd2,34.6914,38.1551,3.4638
Er3TmCu4,17.9355,19.7752,1.8397
Tb4Dy2YEr2,25.9739,28.5845,2.6106
InCu3I,13.5392,14.0043,0.4651
AcPm2Nd,34.8262,38.1983,3.3722
SiIrC2,46.5101,36.168,-10.3421
NaSbTe,26.9393,22.5096,-4.4297
Sb2AsPb,38.2003,35.2783,-2.922
InPt2,61.0618,46.8366,-14.2252
AlCd4Co,23.1284,19.8018,-3.3266
TaTl2Sb,46.8681,45.2037,-1.6644
ZrRuW2,57.7987,52.2187,-5.58
Y2ScS,31.326,30.8888,-0.4372
B3AuI,16.1267,17.2479,1.1212
CsNaAg,25.0659,21.6082,-3.4576
RbNbGa2,40.8821,34.6804,-6.2017
AcPmNd2,34.6793,38.1551,3.4759
CaP3S,26.1929,23.4974,-2.6954
Tl2TcPb,62.3302,59.8819,-2.4483
Na3MnBi,47.2502,41.8069,-5.4432
La3Y6ErTh2,33.3173,30.007,-3.3102
BaLaFe2,19.1106,13.4535,-5.6571
V4Ga(TeS)4,70.0537,56.69,-13.3637
Pm3Bi2Se,31.9482,34.1653,2.2171
LaYErTh,40.2524,38.7648,-1.4876
SrTc2Ge,46.4886,41.2123,-5.2763
BaSrLa2Fe,32.7407,22.6847,-10.056
BaSrLa2Fe,33.512,22.6847,-10.8273
Si(IrPd)2,20.8741,23.2842,2.4101
NaAg3Ir,33.7779,29.372,-4.4058
LiPm2(PbS2)3,44.5835,37.0068,-7.5767
Eu2HgI,18.9847,19.8054,0.8207
ScTa2Re,74.0344,70.5528,-3.4816
TiSiRu2,18.713,16.9575,-1.7556
Ce3Pu2ThS6,50.22,44.5972,-5.6228
CaScIn,2.9977,3.4893,0.4917
Sb2AuN2,27.8294,25.0693,-2.7601
CaWC2,34.0546,30.2007,-3.8539
CaSc4In5,17.2796,14.3595,-2.9201
Y(CrBr)2,33.089,26.545,-6.544
TlTcMo2,44.1492,44.0792,-0.07
TaHgPb3,39.2411,40.6662,1.4252
Y2Hf2Sn,68.3156,50.0491,-18.2665
NaScSeS,41.6148,37.917,-3.6979
LiPu3(NpS3)2,56.7683,50.0683,-6.7
Na(IrRu)2,28.5845,26.4458,-2.1388
PmSm6Y2Er3,24.2367,25.961,1.7243
TaMnHg2,34.1834,30.9878,-3.1956
CaScIn,14.5364,3.4893,-11.047
KPd2Cl,13.2069,14.1508,0.9439
Sb3Pb5,49.7344,46.4862,-3.2483
CaScIn3,17.5954,16.0977,-1.4977
HfGaRu2,39.4665,32.6278,-6.8387
LaEr3Cu4,16.0168,16.1526,0.1358
Sm3ErCu4,16.2205,18.6226,2.4021
AsIrPbBr2,33.0854,30.4328,-2.6526
RbV(SnBr4)2,21.1126,19.2878,-1.8248
Li2SiS,10.6713,8.3339,-2.3374
NaAlV2,67.3354,53.6454,-13.69
Li2RuBr,16.8888,15.9452,-0.9437
CaFe2N,10.0688,8.0862,-1.9827
RbV(CuBr4)2,21.1237,18.466,-2.6577
Y4ErAl4,32.3245,25.2506,-7.0739
CsAgRh3,42.5797,31.8763,-10.7034
Sc11Ag4Hg9,7.0825,7.0652,-0.0173
Sn2GeBi2,28.379,29.7429,1.3639
BaPPb4,38.0335,38.1112,0.0777
NaTiOs2,34.6051,35.2518,0.6467
PrNdIr2,26.1996,30.5248,4.3252
TaAlBr3,15.6084,16.0031,0.3947
Sr2TiOs,20.5011,21.6435,1.1424
TaPdSe4,40.7552,35.1763,-5.5789
Ta2AlBr,22.459,25.0865,2.6275
SrLu2N,19.7252,22.4263,2.7011
TaAlBr,18.2481,20.5056,2.2575
NbC3Cl,67.7812,50.2803,-17.5009
ScCd2Sb,23.5274,21.5309,-1.9965
RbLiZnS2,21.9292,16.5296,-5.3996
BaLa2Pb,38.7868,30.6974,-8.0894
Na2CdTeO4,9.4887,9.4419,-0.0468
Sc4AlTl,12.8378,14.957,2.1192
Tb2Y10Er,17.3018,18.8454,1.5436
BaCaPr,1.2221,2.2327,1.0106
LiIr2SBr,38.9365,35.3851,-3.5515
ReSb,43.865,42.023,-1.842
SrBe2V,41.0884,31.1656,-9.9228
LiMnSN2,33.0375,26.166,-6.8716
Ti,5.4043,10.4372,5.0329
Ba7Na3N2,6.1807,5.5029,-0.6778
TaCu2,19.2896,5.8186,-13.471
TaCu2,12.8681,5.8186,-7.0495
ReSb,35.1864,42.023,6.8366
Rb2ZnReTe,28.6061,22.2261,-6.38
Cs(CaRh)2,22.738,18.5836,-4.1544
BaAcY,59.2155,53.7873,-5.4282
CsCe2(CN3)2,26.8763,25.1948,-1.6815
Rb2LiVS4,40.0382,29.8203,-10.2179
BaAcY,59.2083,53.7873,-5.421
LiBeS2,24.4609,18.4381,-6.0228
Hf2Sc2In3,53.0061,40.3783,-12.6278
Pm2Sc2In3,19.6951,19.1094,-0.5857
Cr5Ni,15.6947,15.7577,0.0631
KLaBe3,14.357,10.9288,-3.4283
GaNiBr4,9.6714,10.5816,0.9102
GeSb3As,31.5646,25.2627,-6.302
Cs7Ag3O2,21.6992,20.4613,-1.2379
Ba2Sr2Pt3,41.5462,28.7612,-12.785
Zr2ZnSi,55.0065,44.673,-10.3334
Ge(SbAs)2,24.12,20.952,-3.1681
KVO4,16.68,12.1867,-4.4933
IrAuF6,17.8926,16.7412,-1.1514
LaAlPb,26.3727,32.2112,5.8385
Tb3(NdSc)2,14.9866,18.2578,3.2712
AgIr2Pb,38.0584,40.2732,2.2149
Sm(Y2Th)3,24.4532,28.015,3.5618
ZnI6,20.7175,21.1901,0.4726
Nd2Tm3Sc2,21.6589,24.0828,2.4239
KAl2Cd,9.65,10.2616,0.6117
BaNbPb2,61.9892,57.031,-4.9582
MoOsSe4,43.5324,36.9679,-6.5645
BaPb3,39.1255,40.7444,1.6189
Be2InTc,29.5519,27.3672,-2.1847
TbBiSb,41.7645,40.1731,-1.5915
BiPb3,53.1314,55.0216,1.8902
Be2InTc,29.3395,27.3672,-1.9722
Nb2PRu,75.5904,65.327,-10.2634
Ti3AgSb,19.0082,17.3139,-1.6943
NaCo2Cl,6.8979,7.6708,0.7729
BeInTc2,51.9173,46.8519,-5.0654
MnFePb2O5,39.6568,36.7214,-2.9354
Y2In9Hg,23.0805,21.7175,-1.363
CsBeBi,17.5319,22.2819,4.75
BeInTc2,52.0159,46.8519,-5.164
Na2NiRhF6,14.2788,12.0886,-2.1903
LiIrS3,43.0819,33.737,-9.3449
Na2BeIn,17.7449,16.0327,-1.7122
DyNiAg2F6,13.2696,12.463,-0.8065
Mn2MoIrBr,57.475,48.0398,-9.4351
ScTc3W,96.3239,82.8878,-13.4361
TlZn2Cr,17.5155,19.5388,2.0233
ScCrC,2.4422,3.9923,1.5501
NbTc3Cl,85.781,72.1172,-13.6638
NbP2Ru,40.8232,37.3571,-3.4661
Hf2GaRu2,57.4076,43.3561,-14.0514
BaCr4As,17.9738,15.2356,-2.7382
NiTe2I,28.8873,27.6608,-1.2266
TlZnCr2,20.667,20.1372,-0.5298
TlCr3,19.9009,19.8903,-0.0105
TlCr,19.4365,23.6616,4.2251
Sr11Tl9Pb4,33.5918,34.4807,0.8889
InIrPtI,39.6118,34.768,-4.8437
Ta4PtPb,48.5603,46.4163,-2.144
Al2Cu2Se,11.5157,9.5159,-1.9998
Ba4Ca2Cr,8.5122,6.7815,-1.7307
NaPmSiAg,31.0683,26.0806,-4.9877
CrCoRe2,24.1743,26.9806,2.8063
CsUTcN4,18.0869,17.3051,-0.7818
In3SeI,26.5456,25.087,-1.4586
InIrI,16.1121,19.7195,3.6074
BaCa2Cr,14.6657,11.1394,-3.5262
Pr2Nd3Sc2,10.6969,13.3972,2.7003
Ni2TeI2,20.3849,20.8377,0.4527
KVO3,30.0709,24.0507,-6.0202
CrCo3Re,15.2023,16.41,1.2077
VInPt2Cl,66.5908,48.3049,-18.2859
HoScTc,92.0257,80.5067,-11.519
Cr2CoRe,16.5211,18.1234,1.6022
Ba3Sm(FeO3)2,5.9323,5.0194,-0.9128
Sc8Tl5Cd,22.2574,23.6641,1.4067
Sn3TeAu3,32.0419,32.7637,0.7218
Cs(AlBi)2,27.8359,29.0755,1.2396
InCo4Br,13.8185,13.7665,-0.052
CaErTl2,33.7568,35.9426,2.1858
CdTc2Pb,64.9233,59.638,-5.2853
Zr2NbN2,66.7031,55.5849,-11.1182
Li2TeAu2,24.1191,24.6722,0.5531
Al(CuSe)2,20.7883,16.1985,-4.5898
U6IrSe12,53.4536,48.1942,-5.2594
TiMo2Br,5.3084,9.1803,3.8719
Tl2CdGeI6,26.3074,27.07,0.7626
Nd2Cu4Si3Ge,13.7024,12.8746,-0.8278
BaLiNb,38.2887,33.8779,-4.4108
BaLiNb,51.3184,33.8779,-17.4404
V4SiN5,52.5584,42.1746,-10.3838
Cs3AlBi,26.4396,26.9406,0.501
Y2ScHg6,11.3182,9.4124,-1.9058
Hg2TeBr,11.7373,11.39,-0.3474
PmYSnHg,24.9557,22.7686,-2.1871
CuSe,8.0916,7.3682,-0.7234
Pm5Ni4Pd,16.3165,19.4811,3.1646
Cs2AlBi,26.7595,27.8062,1.0466
BaSc2I,8.6463,10.0741,1.4278
NbMoSe4,57.6426,48.8254,-8.8172
AsPt3C,68.2969,46.5572,-21.7397
KYMn2,56.963,48.2769,-8.6861
Cs2TmPuO6,13.2635,15.9695,2.7061
RbTeNO2,18.8734,15.4102,-3.4632
Ni4SbRu,17.6008,17.2955,-0.3053
SrAl2Co,19.4584,14.1801,-5.2782
Y3UHg3Te8,36.3779,32.3496,-4.0284
TiIr2I,23.1328,27.2596,4.1269
La6PmBi5,49.9825,41.601,-8.3815
TbTh2Ru,43.7901,47.9859,4.1958
NaLaAg,35.9148,26.7643,-9.1505
NiSbRu4,23.085,22.4983,-0.5866
LiYHg,18.4256,15.2971,-3.1286
AcHoCdPt,49.7953,45.0799,-4.7154
CoPSN,65.6759,58.0858,-7.5901
Tb(YHg3)2,13.647,11.8642,-1.7829
BeCuP,8.8734,8.4311,-0.4423
BaPr2GeO5,7.6158,4.5107,-3.1051
Na2NdAs3Pt4,45.6834,33.1774,-12.506
CuP7,7.0662,6.2514,-0.8149
Sm2Th3Sc2,36.9968,40.7433,3.7465
Sr2MnTe,37.9762,34.632,-3.3442
K2Zn5Au4,22.6389,22.9253,0.2864
K2SrRh,22.0786,17.8634,-4.2152
Sr2GeOs2,18.508,22.2027,3.6947
Ce2YHg6,10.6117,10.3272,-0.2844
CsNiB2,10.2832,11.6786,1.3955
VGa3Sb,40.8876,32.9121,-7.9755
Sm3(TmSc)2,20.9683,23.4841,2.5158
RbBa2P,9.996,7.3224,-2.6735
Rb(BaP)2,12.0382,7.9364,-4.1018
InPt3,71.8413,50.4499,-21.3914
Dy9Tm11Sc4,25.2012,26.7707,1.5695
Sm9Sc4In11,21.211,20.5002,-0.7108
LiThZrRu,45.1075,42.9421,-2.1654
Mn(PdPb)2,42.5951,40.5802,-2.0148
Tb3(TmSc)2,21.642,24.2331,2.5911
YGaHg,19.131,14.219,-4.9121
Ba2ZnW,9.9451,11.8929,1.9478
ReAgPt2,62.7433,48.3468,-14.3965
VP2C,43.3658,32.9401,-10.4257
Dy9Er11Sc4,24.6126,26.2435,1.6308
YHgP2,18.7752,13.9614,-4.8138
MnTl2Ag,54.8586,49.3719,-5.4866
RbBe2Cr,2.4954,3.4192,0.9238
ReSbPb2,48.4893,47.372,-1.1172
LaCePr2,16.9578,14.9352,-2.0226
FeTcTe2,44.6467,40.6865,-3.9601
Sr2ReAu,37.2489,35.3694,-1.8794
PaTc2Ir,73.8112,69.6734,-4.1379
Mn2TlAg,70.6393,59.9498,-10.6894
Gd2HgC,19.5813,19.877,0.2957
Ho9Sc4In11,22.4657,21.6907,-0.775
Y2HgSb,30.6444,28.772,-1.8723
Si2NiBr,11.9566,9.9376,-2.019
Ta2Ir2Ru3,34.7126,34.7415,0.0289
LiBeSeO4,15.2654,14.0135,-1.2519
Dy11Ho9Sc4,24.0515,25.7155,1.6639
TlW,25.8682,36.9787,11.1105
SiNiBr,11.98,10.6406,-1.3394
Dy9Ho11Sc4,24.1281,25.7679,1.6399
PbIO3,29.2664,26.4231,-2.8433
Tb2YHg,13.0569,14.6761,1.6192
SrRe2Au,44.2899,42.5863,-1.7036
YGa2As,5.6033,9.5289,3.9255
AsRhSe,37.6176,34.0967,-3.5209
Na2Hf2PaSe6,61.7349,47.7859,-13.9489
Y4ScPd15,23.3065,21.5382,-1.7683
UPdSe4,45.8237,41.1896,-4.6342
NaIrRu,28.2641,24.6773,-3.5868
TlW2,34.5584,44.5711,10.0127
Ta2Mn,35.9846,38.1277,2.1432
Na2AlAu2,29.0418,28.5838,-0.458
Si2TeP,22.857,20.5123,-2.3447
Tc2AgGe,50.7752,46.1134,-4.6618
Ni(SeI)2,27.0555,23.4644,-3.5911
Ni2Ir,18.73,22.5924,3.8624
PrUSe4,35.0787,32.3675,-2.7112
Na2UAs2,27.1374,26.5624,-0.5751
GdAg4Sb,33.0647,28.1417,-4.923
SrNi2Ru,15.5191,16.4611,0.942
OsPbSe2,42.4442,40.8966,-1.5476
Zr3Nb4,123.1088,100.6314,-22.4774
SiRuBr2,19.3089,15.2319,-4.077
La2Hf(TlSe2)3,56.1597,45.3284,-10.8313
AcTmCoIr,35.9372,39.9482,4.0109
AcTb2Lu,37.8828,40.3878,2.505
Pr6Er2In,0.9059,4.0233,3.1174
CaTlAgN,18.9205,18.8731,-0.0475
RhAuSe4,43.6756,36.0878,-7.5878
Os2PbSe,46.8001,48.1433,1.3432
GdTlRh,42.6902,39.7007,-2.9895
OsPbSe2,48.4078,40.8966,-7.5113
Ta2TePt,51.2598,46.4628,-4.797
V2FeI,70.841,56.96,-13.881
Tb9Nd11Sc4,22.1681,23.9083,1.7402
Zr3Al5,38.4025,32.2838,-6.1187
Ga3Hg3I,5.4945,6.3666,0.8721
Zr2TaNb9,125.6851,101.9728,-23.7123
Ti2Co2Au,34.0432,29.921,-4.1222
PuNi5,17.1735,20.026,2.8526
B3Mo2,6.1153,9.4726,3.3572
Sc2BiPd,19.2906,20.3195,1.0289
OsRhSe4,41.2773,34.7723,-6.505
Sc3AsS,34.0504,28.3655,-5.6849
RbCo2TcSb,32.5781,27.0951,-5.483
VTe2I,58.8527,51.4422,-7.4105
YHgIr2,34.417,34.1277,-0.2893
CePaFe2,41.3576,36.1319,-5.2257
ScTcSnRh,78.9802,67.4101,-11.5701
POsBr,20.9886,22.6441,1.6555
HfSc2Mo,43.745,36.155,-7.59
IrSeN3,20.4531,19.245,-1.2081
TaFeP2S,35.1873,32.4829,-2.7044
Al2Au,13.7669,16.9496,3.1827
SnMoBr2,31.2667,24.9867,-6.28
TlSb2TeMo,43.2337,36.2042,-7.0294
BaZr2Ag,57.6045,45.8062,-11.7983
YHgMo,27.5595,5.9235,-21.6359
CoMoOsBr2,26.3381,21.813,-4.5251
NaP2Ir,25.3142,22.1414,-3.1728
YTaHg2,30.5036,25.7393,-4.7643
TaMoBr2,19.3703,22.3968,3.0265
Tl(Sb3Rh)4,45.8499,35.1035,-10.7464
BaZn(GeS3)2,31.5962,22.9166,-8.6796
CdGa3I,14.0682,14.2997,0.2315
Nd4In12Rh,22.2102,22.2118,0.0016
TaVNi,45.4309,39.2616,-6.1693
Sm4Ag3Au,29.77,29.021,-0.7491
VHgPd2,40.9898,35.0877,-5.9021
U4CdRh12,51.5504,41.506,-10.0443
CaYPb,30.2025,27.5516,-2.6509
RbMnI2,36.4793,31.9349,-4.5444
LiMg2Cu,7.8827,6.0103,-1.8724
CdGaI3,19.209,19.3892,0.1802
Pr12Dy5Ho2,9.4397,8.8062,-0.6334
PrCd5Ag3,20.4873,18.9828,-1.5045
CaY2Pb,26.2126,26.097,-0.1156
TaInAg,30.198,30.7764,0.5785
La6InAu2,41.9353,30.9538,-10.9815
Ac2La6In,46.4582,35.3625,-11.0957
Sr2InPb,22.1004,24.9797,2.8794
SrCa3Pd,1.7712,8.838,7.0668
TaIn2Ag,27.1421,27.4655,0.3234
PrZr2CuN4,19.0454,15.0607,-3.9847
LaRe3W,43.3879,42.0085,-1.3795
Ta2InAg,31.3006,33.2357,1.9351
ZrCuRe,49.184,45.7424,-3.4416
LaReW2,33.3604,37.214,3.8536
Sm4AgAu,29.6267,30.1115,0.4848
CdCoRe2,55.7774,50.8219,-4.9554
RbCaSe2,45.7695,37.5043,-8.2652
CaYPb,30.1278,27.5516,-2.5762
La2ReW,45.8376,39.1222,-6.7154
SmLuAgAu,33.7365,34.811,1.0744
Ca4YPb5,31.1735,31.7952,0.6217
AcPrCuPt,38.9482,33.1616,-5.7866
Tl5Ag3Bi,44.8494,43.2428,-1.6066
ZrVTe2,77.7856,65.5015,-12.2841
Tl(TeI)2,33.8608,33.4488,-0.412
Sr(LaSb)2,35.7849,26.7521,-9.0328
SmAgPtAu,47.6901,40.5996,-7.0905
RbTi3Pt,22.3361,16.6552,-5.6809
CaYPb2,36.1397,34.9093,-1.2304
ZrVTe2,77.5881,65.5015,-12.0866
LiSmCuAu,19.5194,21.9521,2.4327
CeReC,56.0556,49.4263,-6.6293
Tb2ReC3,52.9263,43.4088,-9.5176
SbTeMo4,26.6882,25.3453,-1.3429
VGeSb,55.5812,44.5296,-11.0517
LaSmSnAu,35.4574,33.3902,-2.0672
CaYPb,30.1451,27.5516,-2.5935
Y2InSi2,32.9721,29.1878,-3.7843
AcLaTb3Pm,32.3186,33.1098,0.7912
Ge2OsAu,27.1612,30.2882,3.127
CaYPb2,35.5256,34.9093,-0.6163
CaY2Pb,26.2549,26.097,-0.1579
Pb2CBr,52.8877,45.0561,-7.8316
Ba2CeSnS6,31.8093,24.2056,-7.6036
Sr2SmUS6,38.064,31.4925,-6.5715
BaEr(TeS3)2,44.609,34.5761,-10.0329
Rb2ZrAlF6,19.1272,14.8811,-4.2461
Pa2TiSi2,25.3092,27.1878,1.8786
Sn2IrRu2,20.3404,20.716,0.3756
TcAsIr2,47.677,47.4868,-0.1902
Y5HoEr8,24.0098,25.5858,1.576
LiHf2Ta,74.0536,58.9524,-15.1012
BaLiW2,22.6545,24.5733,1.9188
LaCo2Ge,12.0707,11.4626,-0.6081
Na3CaW,25.6018,22.7218,-2.8799
CaYPb2,35.5447,34.9093,-0.6354
Tb6Pr2In,14.222,17.0682,2.8462
Pr6InAu2,4.4414,6.811,2.3696
Zr2CuSi4Pt3,52.7054,36.9773,-15.7281
BaHo(TeS3)2,44.5021,34.5259,-9.9762
Ac4LaIn3,41.7255,42.3881,0.6626
NdTm4In15,21.8559,23.0171,1.1612
NaZn2Ag,17.8534,15.593,-2.2604
FeAg4F7,14.7205,11.9978,-2.7227
RbTiAl,1.3262,2.4267,1.1005
AcMgAs2Rh5,37.4963,29.1569,-8.3394
UTl2BiS6,50.9862,43.233,-7.7532
Y3Al3In,30.4163,24.7831,-5.6332
Ac2Cu2SiPt4,57.0189,43.6666,-13.3523
Ca3YPb4,31.8828,32.225,0.3422
Y3Al3Os,32.3485,27.6089,-4.7396
Sc2AgS2,39.2366,35.3476,-3.889
NaZnAg4,26.3359,21.6071,-4.7288
SmPuAu2,47.3355,50.0813,2.7458
ReGe2Mo,25.4396,25.216,-0.2236
TlInOs2,39.4897,42.0114,2.5217
CaY3Cu4,29.3457,23.7043,-5.6413
Ta2CdCo,46.0454,39.2652,-6.7802
Sr2MnHg,31.61,27.3566,-4.2534
TlIn2Os,29.9413,32.2413,2.3
Ba2YNpS6,43.9787,34.7873,-9.1914
Ba2YPuS6,44.0613,34.7074,-9.3539
K2ScIr,27.3739,20.2205,-7.1534
TaGe2Br,17.5259,19.5622,2.0363
Sr2PdI,15.9739,17.5289,1.555
SnBiPt3,69.5622,51.6666,-17.8955
SnGeOs3,33.7042,35.2707,1.5665
Sm2ScAl4Au3,20.7706,22.0357,1.2651
Tm6In2Re,29.0286,31.0627,2.0341
CaYCu4,17.3749,15.0787,-2.2962
SnGeOs3,32.5675,35.2707,2.7032
Ti3PbBr,22.8371,21.2025,-1.6346
AlAgTe2,29.3987,26.6113,-2.7874
BaNaIn,14.6386,13.9605,-0.6781
SrCaY3,18.4444,15.5577,-2.8868
SnOsPb,27.1562,33.0072,5.851
SmGd2Sn,25.8285,28.7598,2.9312
Ac2TbSc,40.2554,43.4209,3.1655
TlInMo2,26.0674,28.5497,2.4824
Pr(SbTe2)3,33.7699,29.8604,-3.9095
SmGd2Sn,25.7558,28.7598,3.004
Y3HgO,30.8771,24.727,-6.15
CaMoP2S,34.0005,26.2966,-7.704
Na2MnFeF6,21.9795,18.5969,-3.3826
SnRuBr3,18.8065,17.0986,-1.7079
Na2DyMnF6,20.9204,18.502,-2.4185
CdSnTe2,31.029,30.3688,-0.6602
ErMnAu2,55.3882,52.3793,-3.0089
RbMg6W,8.7235,8.3967,-0.3268
KMg6Si,5.6772,5.3303,-0.3469
Mg6CuSi,7.2988,6.0061,-1.2926
V3AgP,85.9868,66.6861,-19.3007
MoBr2Cl,9.1083,9.092,-0.0163
AgHg2Ir,16.6887,17.1843,0.4956
Sr4LiY2(RuO6)2,23.5874,21.1075,-2.4799
Sr4LiY2(RuO6)2,23.5808,21.1075,-2.4732
BaZrTa,45.9695,41.1968,-4.7727
Hf3NiOs2,86.2286,68.2891,-17.9396
Cd(SnTe)2,28.9394,28.0836,-0.8558
RbNa2HgF6,5.7521,3.9904,-1.7617
Y2Hg2Pb,26.6241,23.5145,-3.1096
Sc4Hg2C,11.0627,10.2809,-0.7818
Dy2ScAlO6,29.1254,28.082,-1.0434
Ag2HgIr,26.7593,26.0605,-0.6989
YTm7Hg4,21.9334,22.1717,0.2383
ScAl(GaO3)2,32.356,28.9518,-3.4042
Na2ScCuF6,9.7501,8.1578,-1.5923
ZrTa3,52.2415,51.4566,-0.7849
TePb2W,47.1004,49.6278,2.5274
Sc5AlZn4,5.7951,7.6083,1.8132
ErLuTlIn,33.045,35.6945,2.6495
Tl4In5,33.6302,34.5787,0.9485
GdPbSe2,43.4343,40.0972,-3.3372
Ho4PS3,34.3802,31.2573,-3.1229
HfNbCu,73.1035,59.151,-13.9524
K3Br,11.0801,10.8411,-0.239
LiCu2Se,15.7387,14.6513,-1.0874
SrBe3O,9.1135,6.1099,-3.0036
Mg(CoMo)2,5.1898,8.0203,2.8305
LiCuSe,17.8304,16.0398,-1.7906
Li(CuSe)2,21.8649,18.8534,-3.0115
Tc3RuC,72.9811,61.3738,-11.6073
Th3(SiGe)2,34.542,34.6576,0.1156
NaTc2TeSe,61.0328,51.3304,-9.7025
Y2PuHg,43.4878,38.8978,-4.59
Rb3Na2CrF9,11.4307,9.2941,-2.1366
Sc2TaGa,61.5405,58.8514,-2.6891
Cs2GaSnBr5,10.8349,12.3838,1.5489
TbFeAs,31.9024,30.235,-1.6674
NaCu2HgF6,7.7025,6.3157,-1.3868
Sm2Np(NiPt4)3,67.298,48.0125,-19.2856
Tb2PrOs,22.4315,26.7783,4.3468
SnOsPb,32.8153,33.0072,0.1919
Hf4SiSe3,90.9703,66.1627,-24.8076
AcPt(RhO4)2,20.8566,16.7052,-4.1514
PrAgGe2Pt5,54.6675,37.3166,-17.3508
NaYTlHg,31.2066,27.7198,-3.4869
Ce2AgSn4Pd3,24.6574,22.0284,-2.629
Ni2AsBr2,13.7681,11.6396,-2.1285
LiPdI3,17.1061,17.8677,0.7616
HfCuSi,41.8755,30.567,-11.3084
HfCo4Ru,30.5432,26.7439,-3.7993
Ti2Co2Br2O5,18.103,14.3713,-3.7317
BaCa2Gd,9.999,11.7862,1.7872
Ba2CaGd,8.7678,10.0875,1.3197
HfCuIr2,51.3523,46.2698,-5.0825
BaCaCo,8.7181,7.7898,-0.9283
CaGd2Co,23.9224,23.0982,-0.8242
Sr2LaAg,25.0118,21.4792,-3.5326
Y2Tc2Hg,91.435,78.747,-12.688
TbY2Rh,25.4578,25.0026,-0.4552
Hf2Si2Se,65.0201,45.5871,-19.433
K2NaVF6,15.4272,12.6878,-2.7394
KScCoO3,73.3306,63.606,-9.7246
Hf2VCuAs,87.2409,64.8098,-22.431
PrSmSc2,12.3797,13.5537,1.174
Y2HgAs,27.0461,22.6611,-4.385
Hf2CuAs4,47.1831,36.1888,-10.9943
HoHfCu4,33.0873,28.0432,-5.0441
Li2HfCu,34.2974,29.1832,-5.1142
Hf3TiCu,89.2839,64.9568,-24.3271
HfCuMo,46.0074,32.1051,-13.9023
HfV2Cu,95.0,74.2831,-20.7169
Rb2NaSrF6,5.3975,5.1101,-0.2874
Rb2NaTeF6,12.9354,11.4515,-1.484
YHgAs,19.6079,17.6667,-1.9412
MnTlInTe3,45.0363,41.2451,-3.7912
Na2SnWO6,24.2927,22.0681,-2.2246
Hf2CuSb,77.7501,58.554,-19.1961
HfCu2RuW,52.3266,40.7645,-11.5621
HfThCuOs,64.4194,57.6685,-6.751
CsNaSn2F6,11.2506,10.6004,-0.6502
Y2HgPd4,24.8637,22.0525,-2.8111
NaSiAg2F6,12.4176,11.32,-1.0976
Hf5Fe4Cu,79.7607,58.6367,-21.124
Hf2CuRu,70.1028,54.2424,-15.8604
Nd2SnSb3Pd4,28.6051,25.1085,-3.4966
SiIrN2O,16.4904,13.6328,-2.8576
Cs4La3TbO8,26.8503,25.2776,-1.5727
HfCuSb3,57.5882,43.0976,-14.4906
YHgIr2,28.6008,34.1277,5.5269
HfCu2Sb,45.2573,35.0981,-10.1592
AcPt(SO4)2,21.5064,17.7229,-3.7835
Re5Ni,47.2131,43.9125,-3.3006
Th2CuSi4Ir3,32.3368,31.2715,-1.0653
NiAg2BiF6,16.5862,15.4725,-1.1137
CaHfCu2,42.5695,32.0726,-10.497
TePbWI2,37.2222,36.875,-0.3472
La3SbPd,44.1359,30.937,-13.199
Tb2PmRu,30.1844,30.2072,0.0228
HfCuSi2,38.886,27.9676,-10.9184
PuNi2,28.0478,31.4102,3.3624
Tl2NiPdF6,12.728,12.9778,0.2498
Li2GeI,5.3363,7.6981,2.3618
TaFePb2,38.6832,39.2452,0.562
Cs4Nd3TmO8,10.5736,12.2769,1.7034
HfCuSiAu2,53.1072,44.0096,-9.0976
HfCuPb2,64.3365,55.783,-8.5535
SrHgGe2Pt5,52.9662,36.5962,-16.37
Ac3GeB2Pt9,66.5595,48.9257,-17.6338
HfTi2Cu,40.1893,31.7841,-8.4053
HfV3Cu,108.3871,82.3727,-26.0144
Hf6CuSb,114.4995,81.8521,-32.6473
HfCu3Cl,35.1263,26.4624,-8.6639
Hf2CuBr,79.7263,58.2259,-21.5005
Y2HgPd,29.3533,24.215,-5.1383
Hf(FeCu)2,61.5426,46.6729,-14.8697