Formula,E_hull_DFT (eV/atom),E_hull_ML (eV/atom),Delta (ML - DFT)
SrYPd2,24.7502,22.9242,-1.826
ReNiIr2,45.4892,44.6317,-0.8575
Na2Tl(SbPd)2,32.7721,29.5355,-3.2366
LaSb3,41.0871,34.0552,-7.032
SrScBe2,12.3741,9.0803,-3.2938
Ca2Y2C,32.2618,25.2558,-7.006
Zr3(H3C)2,37.8499,30.5943,-7.2556
YZrSc2,30.6236,29.2304,-1.3932
NdSb3,34.5162,31.4672,-3.049
YNbIr3,59.2179,54.2553,-4.9626
Si2AgRu2,16.8618,13.6499,-3.2118
Sr2ScBe,13.1539,11.3003,-1.8536
Ca2YC2,37.3745,28.6141,-8.7603
SiHg2,5.211,3.5473,-1.6636
Be2IrI,27.0499,28.275,1.2251
Ac6Ge2C,46.3674,45.9481,-0.4193
RbY(BC)6,56.0873,42.6386,-13.4488
CsPrZnO3,12.8446,8.4041,-4.4405
ZnGa3Ru,10.6919,11.3567,0.6648
GaBiRu3,24.1495,25.3427,1.1932
Ho3TmCd4,20.6727,23.0791,2.4064
U6Ga2C,45.0039,45.8213,0.8174
Ac3(AlPt)4,50.259,42.5014,-7.7576
Y3SiC,42.3998,34.7439,-7.6559
LaTi3Pb,24.9756,23.4936,-1.482
Ag5PtAu2,39.2233,33.1521,-6.0713
PrTlRu,27.9422,30.9708,3.0286
CuBS2N,33.0139,23.3764,-9.6376
Ag(PtAu)2,61.2315,50.4586,-10.7729
Ag7Pt3Au,48.7541,37.4911,-11.263
Li2TaPb,22.9878,22.8468,-0.141
LiY(ScHg2)2,8.2616,8.0602,-0.2014
TiSi2BN,8.6416,7.1281,-1.5135
Li2CeScIn4,16.0037,15.2009,-0.8028
VIr4Ru,55.7637,51.137,-4.6267
Na2Mo2Ir,24.0126,20.8694,-3.1432
BeAg2As,22.3119,17.4015,-4.9105
CaC2,42.5082,28.8258,-13.6824
VRuRh4,64.0359,48.328,-15.708
Rb2TlI7,20.9646,20.9667,0.002
Ac2Pr2Nd,28.8598,30.9994,2.1396
Pr5Er4Sc,10.0462,12.461,2.4147
LaTeRh,47.0727,37.81,-9.2627
NaPrNd,14.9276,15.5569,0.6293
ZrFeIr,47.0234,44.8945,-2.1289
Pr2NdHo2,14.3426,17.3787,3.0362
Cs2GeC,31.2944,26.1152,-5.1792
TaFeSe2,33.3586,30.2288,-3.1298
Na2RuPbO5,10.3172,10.6885,0.3713
HoZr2Tl,68.9932,62.8143,-6.179
PaVSe4,63.8202,52.4117,-11.4085
Th6Sb2As3Pb,46.3672,47.1627,0.7955
ErVFeGe3,24.6955,22.4595,-2.236
RbBaI2,10.6758,11.3824,0.7065
BaSrLa,21.8869,18.4288,-3.4581
Pr2NdTl2,19.3796,21.7586,2.379
ZrTlRe2Au,57.5093,55.6541,-1.8553
Li2TaTl,22.9053,24.4154,1.5102
Y2TeC,34.1347,31.2893,-2.8454
Ba3HfGe,31.2263,22.6609,-8.5654
YCu(BC)6,56.4949,42.8947,-13.6001
ZnSn2Bi,22.9545,25.6837,2.7292
Tl2GeIr2,34.847,37.5499,2.7029
TiBiTe3,38.1337,36.1267,-2.0069
TmAl2Pd9,15.6768,17.5394,1.8626
AcAlInPt,43.4865,39.5605,-3.926
YZr3Al8,32.2593,27.7008,-4.5585
Cd2AsPb,22.8473,25.1554,2.3081
Na2Pd2PtSe6,41.6655,33.0821,-8.5834
TiI2,16.3708,19.2979,2.9271
Li2TcAg,31.4405,27.3836,-4.0569
K2RhW,29.5083,25.6065,-3.9018
YHoCo2,26.102,24.2601,-1.8419
LiYHoCo,31.343,28.4672,-2.8759
CdFeGe3,10.7229,11.6092,0.8863
Ce(NdHg3)2,7.6357,9.1131,1.4774
TaBeV,72.9404,57.957,-14.9834
In2AuC,38.0096,33.5425,-4.4671
YHo3Co2,25.4532,24.5067,-0.9465
YTe2C,49.8678,42.7348,-7.133
Li2TcRu,27.9992,25.4159,-2.5834
Rb2Ag2Pd,16.8431,14.5777,-2.2654
NiSb,9.8603,7.8542,-2.0061
NiSb,0.0,7.8542,7.8542
YTe2Rh,36.3852,32.5798,-3.8054
SmY(MgCd2)2,15.2705,16.6021,1.3315
TbPuSnPb,42.6531,45.2188,2.5656
LuScVRh,53.806,44.7686,-9.0374
Pa2TlNiO8,14.9221,16.725,1.8028
Rb(BaSn)2,8.5435,9.3486,0.8051
Tb2CeNd6,25.1876,27.9705,2.7829
CePdRh,23.0421,21.832,-1.2102
Ba2Sr2I,7.6134,8.7419,1.1285
Li2CdTc,28.448,25.2614,-3.1867
Cs3(NaBi2)2,37.5021,37.047,-0.455
Sm6Te2Ru,27.0968,28.0339,0.9371
NaThAsSe,50.7014,49.0516,-1.6498
Rb2Sn2Pd,14.6493,13.5425,-1.1068
Fe(NiAg)2,33.409,26.0298,-7.3791
BeAlSe,20.5114,15.1025,-5.4089
ZrFeTc2,71.0421,61.2177,-9.8244
FeNi3Ag,28.6394,22.3755,-6.2639
Rb2Bi2Pt,40.2044,35.8062,-4.3982
Ce(SmDy3)2,22.1138,24.8642,2.7505
KC2Br,35.5158,24.9059,-10.6098
ZrFeTc2,71.0289,61.2177,-9.8112
ZrFeTc2,70.9395,61.2177,-9.7218
TbPm6,20.797,22.9234,2.1264
NaNbBiPt2,81.2718,63.9351,-17.3367
CsGaO2,25.551,18.4761,-7.0748
Y2TeRh,28.9905,26.3507,-2.6398
Ta2FeSe,30.4069,31.4865,1.0796
LiAc(AlPt2)2,54.0711,42.2597,-11.8113
Y2TeRh,28.7455,26.3507,-2.3947
GaBiRu2W,44.1467,37.2546,-6.8921
Ta2SiSbN,27.4601,26.6863,-0.7738
Ce(Sm3Hg)2,19.2113,21.1116,1.9003
ZrFeTe,46.7235,41.918,-4.8056
ZrFeTe2,45.9563,41.7631,-4.1932
YSc2Pb,18.8758,21.9739,3.0981
PdRu3Au,24.6872,26.2814,1.5942
Rb2MnRuBr6,27.2356,23.6007,-3.6348
Tb6CeEr2,22.3419,25.2922,2.9503
NiBMo2,19.2762,21.591,2.3148
LiAc2Nd,38.6001,40.7416,2.1415
Tb2CeTh6,46.4293,49.9726,3.5433
Tb6CeTh2,30.0809,33.1428,3.0619
NaAlS2,30.5139,23.5021,-7.0118
ZrFeTe2,45.2284,41.7631,-3.4654
NaTa3Mo,32.5138,34.0862,1.5724
TaSeN3,18.9555,18.0619,-0.8936
Ta2MoIr,35.7097,38.1131,2.4034
NaTa3Mo,31.4207,34.0862,2.6655
Na(TaIr)2,27.927,33.8432,5.9163
NaTaMo2,16.9328,21.9445,5.0117
YHo2PaCo2,30.9095,30.5883,-0.3212
Rb2Zr2V,62.1628,49.6547,-12.5082
Na3(CoSi)4,14.1371,11.6219,-2.5152
Th4SbAs2,39.018,41.551,2.533
EuErSi,25.5335,25.7066,0.1731
Ce2GaN,7.269,12.6634,5.3944
ScS2,51.0281,44.0626,-6.9655
Sc2BPb,15.7652,19.6223,3.8571
Be2InMo,13.377,11.7747,-1.6023
BeInMo2,18.0895,16.1422,-1.9474
Li2TcOs,34.1208,31.8605,-2.2604
I3Br,19.392,19.8741,0.4822
In2SiPt,36.1079,29.2618,-6.8461
Rb2SnBi2,23.7767,25.1548,1.3781
BeInMo2,17.8557,16.1422,-1.7136
TmFeSb,38.1233,33.963,-4.1603
CeInPb,32.1788,34.3356,2.1568
Na2TaSe5,40.2542,33.3197,-6.9345
La(Sb2Ru3)2,29.5859,27.4287,-2.1572
La2Pm3Zn2,27.4404,25.1825,-2.258
BeIn2Mo,17.4415,16.466,-0.9755
NaAgSnTe3,30.2914,27.754,-2.5374
Li2TcIr,34.4392,32.4232,-2.016
Ce6ThPa2,39.0165,42.2667,3.2501
Ca2PtF,26.21,20.8394,-5.3705
AsCSe2O,46.8366,37.7545,-9.0821
CsLiOs,18.4673,21.4157,2.9484
BaSrLa2,29.4087,23.6518,-5.7569
Tb5Nd4,25.7486,27.646,1.8974
C2Se,51.1229,39.4976,-11.6254
Nb3Al2N,46.176,37.014,-9.162
BaLaI2,23.4105,20.8349,-2.5756
MnMo3Br,32.8073,30.3526,-2.4547
CaTb2PmTl4,35.4091,37.364,1.9549
Cs2(NaHg2)3,10.7475,9.6678,-1.0798
Th2In3Ru,28.7557,32.4763,3.7205
Ac3(LaZn)2,44.5369,42.2779,-2.259
KMg2H8Se,7.4695,6.2532,-1.2163
TaAlCd2,19.8032,22.2121,2.4089
ZrSc2SiBr,41.7441,35.0008,-6.7433
La2Nd3Zn2,27.3823,25.1175,-2.2648
NiOsRh2,29.9429,28.4413,-1.5016
YB6C6F,56.5373,42.8584,-13.6789
ZnInGa,5.3033,11.8744,6.5711
AlOsPt2,49.4441,40.9122,-8.5318
CsScNb3,92.8268,74.499,-18.3278
Cs2RbHg2,9.7716,9.9855,0.2138
TiNbNi4,30.8977,26.9718,-3.9259
RbSiSb,16.8365,13.5008,-3.3358
Rb(InSn)2,13.3986,14.9066,1.5081
KPtBr,29.2537,21.0757,-8.178
NaY(BC)6,57.5283,43.7049,-13.8234
RbNaSr2Ag,16.9988,14.922,-2.0769
Ac2Sm(BrN)2,24.2383,25.996,1.7577
LiY4Ag5,20.9639,19.1143,-1.8495
As2PbBr,28.3398,28.0812,-0.2586
TaCoSe2,55.9952,42.204,-13.7911
Rb(InPt)2,39.6762,31.1641,-8.5121
PtBr5,26.0321,22.2176,-3.8145
Ca(Ac3Tb)2,49.9789,50.6114,0.6325
V6Sb2Ru,97.6939,76.0732,-21.6207
PtBr,52.7448,39.3454,-13.3993
Zr(AlAu)2,34.2889,34.3279,0.039
AlOs2Pt,44.096,41.1583,-2.9378
ZnNi3,1.6654,5.7598,4.0944
NaPrSm2,17.7224,18.1484,0.426
Na2ScPaO5,39.76,35.5909,-4.1691
PtBr2,35.9901,30.331,-5.6591
KBaV,47.9684,37.1588,-10.8095
TbMnNb,81.6477,68.1847,-13.463
Os2PbCl,36.4407,38.5257,2.085
PrBr,0.0,1.6479,1.6479
BeAlP,24.1616,19.3883,-4.7733
Ag2SbRh,35.356,31.4163,-3.9398
Rb(TlIn)2,28.5787,29.0503,0.4716
Ba2ScMnBe,24.3917,19.0186,-5.3731
NpIn2Fe,23.724,24.8217,1.0977
PmY2(ThTe2)3,40.7881,40.5466,-0.2415
BaLi3Re,18.5805,14.6036,-3.9769
V3CdSn,86.6435,67.8593,-18.7842
AcSi2Pt4Rh,62.1042,46.3773,-15.7269
NaNbTe2,57.7186,49.9869,-7.7318
SmLuAg2,29.9979,28.555,-1.4428
Rb2PtSe2,33.2063,24.922,-8.2844
ErTh2ZrSc4,35.0721,35.3699,0.2978
KZn2,7.9335,8.7914,0.8579
YAg2Rh,31.2326,25.4158,-5.8168
PaZn2Pb,33.8332,35.6979,1.8647
Ag2AuSe,39.6908,34.6469,-5.0439
BaNbGaO4,29.874,23.3299,-6.5441
AcPrSb,34.2812,34.3123,0.0311
Rb2NiAg,10.9707,9.1992,-1.7715
SrUGe3,16.3674,18.655,2.2876
Os2CO,28.359,27.885,-0.4739
BaYHg4,18.1792,15.8872,-2.292
Rb2Sc2Ag,7.4574,7.0407,-0.4167
K(TcMo)2,38.3413,36.0758,-2.2656
K3Zn,11.0631,10.2134,-0.8498
VMoBr2,42.3993,35.9979,-6.4014
NbCr3Sb,43.9752,35.2311,-8.744
YNb2Te,85.1233,70.7493,-14.374
KTc3Mo,64.2948,53.5787,-10.7161
Rb2AsCl6O,11.3538,9.9535,-1.4003
LiThRu4,21.8617,24.5557,2.6941
SnGeSe4,32.8342,28.605,-4.2293
KTcMo2,35.7597,32.5443,-3.2154
TlIn3(Te4Pb)2,39.2676,37.8729,-1.3947
Ta3FeSb,41.3651,39.1376,-2.2275
MnZn2Cd,33.6215,29.6242,-3.9972
Si(AgPb)2,33.3396,30.2812,-3.0584
Ac4PtSe2N,54.2005,51.3049,-2.8956
CoRuBr,20.1736,18.0509,-2.1228
PmGa2Pb,23.1322,25.0149,1.8827
NaHfOs2I,56.6071,46.7023,-9.9048
FePbI2,27.3093,26.1663,-1.1429
Na3(TlIn3)2,26.7782,25.9788,-0.7993
Ta2CrNi2,30.1662,26.3465,-3.8197
CaCo5H12,4.3054,3.8519,-0.4534
Na(ZrTc)2,73.9953,63.3313,-10.664
GdYCu4,20.1561,18.5604,-1.5958
Sc13In2,7.6065,8.4693,0.8628
Na3(Tl3Sn)2,35.7584,35.3581,-0.4003
ZrReAu,62.0865,59.9233,-2.1632
La3Y(TmAs3)2,22.6762,20.817,-1.8592
Re2AgAs,30.786,32.5676,1.7817
La5HIrAu2,37.9102,31.3213,-6.589
BeAl2P,30.0656,22.678,-7.3876
LaPrBr,20.218,15.7919,-4.4261
Zr2ReAu,71.1001,65.5537,-5.5464
LaPrBr2,17.4003,14.0117,-3.3886
ZrRe2Au,56.4036,55.6961,-0.7075
ZnCu2Si,10.0497,9.8263,-0.2234
Hf2InBiN,73.988,56.7795,-17.2085
BaSrTa,28.7444,22.6501,-6.0942
YHfInAg,53.1483,41.2487,-11.8996
La3(PmZn)2,31.2968,26.7985,-4.4984
ScTlSn,22.399,22.1343,-0.2646
Tb3Sm(Y3Th)2,26.6956,28.1993,1.5037
Ba(PbCl3)2,12.9552,14.0027,1.0475
Ce5O4,13.2268,13.8196,0.5928
Tl2Ge4Au5,34.1478,35.0031,0.8553
CrCuNi,21.5108,21.372,-0.1388
MgH6PdPt2,22.8748,18.179,-4.6959
Mg2CrH8Pd,6.0016,6.0006,-0.001
Tc4IrBr,72.0159,61.1984,-10.8175
Ca(LaAg3)2,32.6577,25.5589,-7.0988
Ac2AsPPt6,70.5188,54.8664,-15.6524
AcSn2Pt,31.8893,30.1981,-1.6912
Tl3ZnIr,44.9816,42.375,-2.6066
Ba2BeNbO6,13.5181,11.9695,-1.5487
Cu2S3,32.6902,24.5906,-8.0996
NaHfCd2,51.7431,40.5174,-11.2257
In2GaSb2,24.45,22.6215,-1.8286
BaTc,41.7306,34.9615,-6.7691
Ta2Mn3FeO9,53.7769,49.2526,-4.5243
TcGePb3,53.2154,49.9555,-3.2599
NdNi,15.1992,18.7219,3.5226
SnI,21.9084,23.9483,2.04
NaHfCd,50.4105,39.3412,-11.0692
TlZnIr2,40.8937,39.3877,-1.506
Er3Tm3Tl2Rh,36.3354,36.8697,0.5343
Ba2SrUO6,0.272,1.4354,1.1633
ZrSc2W,37.2057,36.4234,-0.7823
Fe2As4Pb3O16,7.6397,8.2037,0.564
Nd3Sm(Mo4O15)2,16.8606,14.9614,-1.8993
RbAcPtO4,15.1573,12.9812,-2.1761
Pb2WI,38.4884,41.0253,2.5368
Al2MoIr,20.8172,20.8899,0.0727
Rb2Ac2PtO6,18.8315,17.3861,-1.4454
Pr3Se2S,21.2487,16.5762,-4.6725
TiP2Ir,12.8114,13.3961,0.5847
Rb2AcPtO6,14.9838,13.6035,-1.3804
Sb2MoAu,33.2351,31.7392,-1.4959
Ca(Ac3Co)2,43.516,43.9224,0.4065
Ca(SmCu3)2,11.2867,12.1366,0.85
ReHgSN2,71.4745,60.6552,-10.8194
Ca(Nd3Co)2,16.3954,16.5624,0.1669
TlPtC2I,59.5719,45.2875,-14.2844
Ca(HoCu3)2,12.0008,12.899,0.8982
Be2AlSi,27.0419,20.2358,-6.8061
MoC3Br,45.1691,31.615,-13.5541
Ca(ThCu3)2,20.4443,21.6084,1.1641
CaTa3Pb,35.5475,37.5903,2.0427
K2BiAu,28.7397,30.1375,1.3978
Sm3DyPb3,32.3692,35.3566,2.9874
BeAl2P,30.0745,22.678,-7.3965
Y2Ga3Pd,12.6612,12.4466,-0.2146
Er2PuMg,33.6189,36.4091,2.7902
BeAlP2,19.7197,15.6418,-4.078
Tb2SmAg5,29.129,25.5067,-3.6223
Tb3SmAg2,27.7185,27.6147,-0.1037
AlMoIr2,24.2875,26.9429,2.6554
Ca2MgSi,11.7146,9.6325,-2.0821
Re2Te2W,41.8834,42.8535,0.9701
MnMo2PdC,44.6304,35.7232,-8.9072
TbSmAg,23.3857,23.9075,0.5218
NaPm2Sn4Pt3,41.902,34.852,-7.05
Y4Ru2Rh,28.0585,24.751,-3.3075
Ba3Be,0.9189,0.387,-0.5319
Re2HgMo,27.2272,28.469,1.2419
BeAgRh,28.2472,21.8628,-6.3844
Ti2Ni2H3,7.4097,7.0855,-0.3241
Si2NiPt,31.0159,25.0045,-6.0115
Gd2YRh,30.0846,29.1543,-0.9302
GdYRh,30.3693,27.6223,-2.747
Y2SnRhC,47.1037,35.0447,-12.0589
Li2ReSb,21.7384,22.0266,0.2882
Na4LaY3Te8,31.7001,28.8536,-2.8465
NaNpTe3Pd,33.7498,33.0306,-0.7192
Rb2NaPdF6,9.434,9.5578,0.1238
Zr5Sc3,63.3633,54.0503,-9.313
CdCuP3,12.5504,10.9682,-1.5822
CsFe3(As3O10)2,4.2337,3.611,-0.6228
TaCoSe2,56.1592,42.204,-13.9552
Ca(HoGa3)2,11.8935,13.7771,1.8836
Ca(NdGa3)2,11.0321,12.8551,1.823
CaBe4Al,16.5122,11.7325,-4.7797
Al2MoIr,20.7598,20.8899,0.1301
KSb2As,27.9005,25.8638,-2.0367
Nb2SiSn,81.8385,64.7613,-17.0772
Tm6Th2H,35.0899,36.0949,1.005
Y2BePb,18.8048,20.2581,1.4533
GaCuSN2,17.313,13.5748,-3.7382
FeNiAg4,37.3307,28.6198,-8.711
CoP4,8.1768,7.51,-0.6668
Be2AlP,18.8869,15.2745,-3.6123
Sb2CSe,45.9336,36.0303,-9.9032
Ca(GeI3)2,17.2003,17.8584,0.6581
GaCuNF2,7.6489,7.3806,-0.2683
AgTe2Mo,30.6222,27.5016,-3.1205
KCoC2,39.6578,30.4426,-9.2152
SrZr2V,80.0667,66.2509,-13.8158
AgTe2Mo,35.2148,27.5016,-7.7132
SrTe3C,40.3123,34.4149,-5.8974
Ta2CoSe,53.1907,42.8993,-10.2914
RbMoBr6,10.0574,11.296,1.2386
Na2YF4,8.8726,7.9236,-0.949
Ca(AcHg3)2,14.2373,15.332,1.0947
Cs3Tm(SO4)3,8.441,7.8524,-0.5886
AcSiPt2,63.6335,50.2739,-13.3596
TeIrPt,58.5989,51.51,-7.0889
Cs3BaSb,24.2009,22.877,-1.3239
Na2Ni2Te,20.8261,19.6542,-1.1719
LiYBeAg2,19.2362,14.1184,-5.1178
NaNiI4,20.104,19.717,-0.387
Li2TaSb,20.8312,20.67,-0.1612
YHfAgOs,58.4796,47.6539,-10.8257
Mn(AgAu3)2,49.4874,46.5482,-2.9391
Mo2PbBr,31.4849,31.7433,0.2584
KCo2C,25.5562,22.455,-3.1012
BeAlP2,19.3995,15.6418,-3.7577
Tb(CeRh)2,27.4137,24.3331,-3.0807
CaLa2W,37.389,31.768,-5.6211
CaLaTbY,29.3971,24.6809,-4.7162
TiSb3As,36.5709,29.0906,-7.4804
CaLaW2,33.8151,33.8889,0.0738
AcSm2Pt,33.8133,30.643,-3.1703
BeCrW,20.2691,20.7304,0.4613
Bi3RhC,56.2485,49.1573,-7.0913
Sm5DyPb5,37.4455,38.8356,1.3901
ZrPtNF2,41.2832,35.0996,-6.1836
Na3(TlPb3)2,44.6511,44.2789,-0.3722
Ce(NdRh)2,27.1824,25.4042,-1.7783
LiY(MgH4)2,3.566,4.0179,0.4519
BeAl2P,30.0918,22.678,-7.4138
AcSb2PtRh5,54.1031,42.1768,-11.9263
Ca(PrI3)2,14.1036,14.056,-0.0476
Ca(Sm3Tm)2,24.1096,26.7876,2.6781
Ba2CaIn6,13.404,14.3138,0.9098
Sr2AcPt,44.8887,40.3036,-4.5851
KTa2As,24.9281,26.8829,1.9548
TeWC3,56.3878,42.5833,-13.8045
SrZnPb,21.61,24.1005,2.4905
Ca(PmZn3)2,11.5022,12.3257,0.8235
Cr2Ni2Ru,26.677,25.2051,-1.472
ScFe,0.0,21.9197,21.9197
CaMg2Re,9.9992,12.9594,2.9602
CaReI3,23.0821,23.5865,0.5044
Al2AgPt2,37.2504,28.8614,-8.3891
YCl3O,33.6127,32.1036,-1.5091
BeInRh,23.0394,19.7583,-3.2812
FePC,20.4987,16.05,-4.4487
Fe3BSb,19.1535,16.0251,-3.1283
PrSbOs,19.8801,23.1749,3.2948
Ta2RuPb,35.906,39.9796,4.0736
Sc2MnAl,28.6684,25.335,-3.3334
Ca2LaRe,25.8651,24.3031,-1.562
Ta2RuPb,35.7686,39.9796,4.211
CoRu2Pb,25.4654,26.7588,1.2934
CoRuPb,28.5348,28.8126,0.2779
Y(InRh)2,25.5028,21.7182,-3.7846
MnAg2Te,51.233,42.0772,-9.1558
NbOsSe2N,73.4011,58.5402,-14.8609
NbSeN2F,40.5093,32.9284,-7.5809
MnAgTe2,54.0135,45.4574,-8.5561
CaLaRe2,34.863,33.8935,-0.9695
Ce(PuRh)2,53.0594,49.0105,-4.0488
CaLaRe2,35.0336,33.8935,-1.1402
LaNbN2,38.7264,29.0525,-9.6739
BaNaSe2Br,25.8484,20.8081,-5.0402
Y2ClO,61.5913,56.7823,-4.809
ZrBe3,19.7429,21.0939,1.3509
Ta2(NbMo2)3,54.023,48.8919,-5.131
Ca(Ac3Os)2,47.4053,50.5261,3.1208
Y8C3S,37.7959,31.4338,-6.3621
Sr6Hg2Rh,11.6774,11.2871,-0.3903
Ca(PrSm3)2,12.4818,14.683,2.2012
Mn3AgTe,75.229,60.6937,-14.5352
Ca(PrNd3)2,12.4346,13.4367,1.0021
Ca(Pm3Pr)2,12.3066,14.4257,2.1191
Ca(Tb3Pr)2,13.6089,15.8834,2.2745
Ca(AcPr3)2,8.4689,9.2079,0.7391
Be2CrW,17.7527,17.2153,-0.5374
HfTlRu2,50.0998,43.0312,-7.0686
La3ScCu,46.1973,33.5069,-12.6904
PrMnGe3,24.0582,21.588,-2.4702
Pb2SF2,29.8723,28.941,-0.9313
Ga2H2Pt3,40.525,30.3283,-10.1967
Na3OsI,28.5053,26.0077,-2.4975
LaSc2Cu,33.0381,26.2058,-6.8323
NaLa3Mo,40.5502,31.0604,-9.4898
Zr2ReOs,69.2897,64.9235,-4.3662
YCl4,33.1758,31.7552,-1.4206
NaOs2I,34.2634,34.9722,0.7088
Pr6Tl3O,13.9176,13.5426,-0.375
Ca(AcSm3)2,27.4082,29.2687,1.8605
BeCrW2,24.5733,26.5727,1.9994
Sr2Ac2PdPt2,49.6047,43.6894,-5.9154
BaLiTc,34.7548,28.4947,-6.2601
TaRuSe2,37.3853,34.5747,-2.8106
BaLiTc2,49.6033,41.1144,-8.4889
Ba2LiTc,25.9548,22.1704,-3.7844
Li5In2Hg2Pd,6.1203,6.0683,-0.052
SiNiHg2,3.2358,3.863,0.6272
Ga2TeRu,20.2532,19.8317,-0.4215
ReIN2F,66.8046,58.9754,-7.8292
Ta(Re2N)2,102.9035,93.2341,-9.6694
SrAc(AsPt)2,48.3715,39.0873,-9.2841
Mg2In2Se5,30.9155,26.2072,-4.7083
BeCrW2,24.4806,26.5727,2.092
LaTmHf,75.4967,58.1204,-17.3763
MoPd2,14.5213,15.893,1.3717
YSc4Tl5,28.5398,30.6335,2.0938
NaPmLuHg,20.6281,21.3944,0.7663
Li3RuCl,8.0854,9.3639,1.2784
Ca(Sm3Dy)2,23.3832,26.0625,2.6793
Ce2DyLu,27.7724,30.7666,2.9941
RhSe3I,44.7379,35.1615,-9.5764
LaScCu,42.2079,32.7617,-9.4462
Ca(Sm3Ho)2,23.5883,26.2656,2.6773
RhSe2I,41.9614,34.0422,-7.9193
Y2Tl3SbTe6,39.0326,37.9108,-1.1218
CuTcRh,50.0596,41.7217,-8.3378
Tl2TeW,46.6186,46.6582,0.0395
YHoTl,25.9672,29.6398,3.6726
Ca(YBi2)2,38.5803,38.1165,-0.4638
TaRuSe,33.731,33.42,-0.311
Ta2NbAsN,46.4616,42.1906,-4.271
Ta2RuSe,34.5102,37.5289,3.0187
Ce2LuSc,22.2084,25.0391,2.8307
NdTmRu,23.5951,27.1062,3.511
Ti5Cu2Rh,3.8004,5.6428,1.8424
Ti2Cu2Rh,14.2473,14.2555,0.0082
Sr2CaIn6,17.1965,17.3191,0.1227
Nd2YTmBi5,40.6133,41.95,1.3367
Hf(CrRu)2,29.2905,25.2209,-4.0696
Sr2AuCl6,13.3705,13.8444,0.4739
NdY3(TmBi3)2,37.0724,38.8974,1.825
PmYIn4,20.8578,21.3165,0.4587
Ac2HoRh2,44.3752,41.4688,-2.9064
TaRu2Se,21.7381,24.3365,2.5984
Cs3GaBr4,11.4679,12.1633,0.6954
CeY3(Ho3Er)2,24.6224,26.0271,1.4046
YMgTe2,21.0272,21.7759,0.7487
TaRuSe2,37.3109,34.5747,-2.7362
Sr2Ac2Pt2Rh,54.1318,45.9491,-8.1827
KZr2As,55.2529,47.2933,-7.9596
SrPbI2,27.5631,28.6034,1.0403
Ac(YEr)2,25.274,28.5339,3.2599
Mg3Al7Cu2,6.7164,5.5958,-1.1206
BeI3,24.6685,25.5581,0.8897
PmYZn2,15.1483,15.7048,0.5565
MoPb2Br,40.905,40.4559,-0.4492
ErBeGa,12.3097,15.1919,2.8822
Tc2AuBr,61.985,54.0226,-7.9624
Ac4Y3ScSe8,41.3788,37.1171,-4.2617
MoPb2Br,41.1032,40.4559,-0.6473
Zr2BeP,50.2005,43.4892,-6.7113
Co2IrPb,29.7412,30.6891,0.9479
SrZrOs3,50.3543,48.4797,-1.8745
NaY(C2O5)2,15.6289,11.5483,-4.0806
CaRhI,20.9767,18.7656,-2.2111
Al2TlMo,23.3173,21.8915,-1.4258
CaRhI,20.5013,18.7656,-1.7356
Y2Al9Si27(N15O)3,11.6794,9.3641,-2.3153
Ir(PtRh)2,64.1163,49.7019,-14.4144
Np(InRh)2,41.2779,37.038,-4.2398
TcAuBr2,41.5747,38.0457,-3.529
Tb2MnCo4B2Ir,15.0479,16.3474,1.2995
AcPr6,5.2516,7.0746,1.823
SrGaIr,12.3275,12.3196,-0.0079
TcAuBr2,41.5229,38.0457,-3.4772
ReMo,22.6602,33.8643,11.2041
SrZrOs2,49.4068,48.3166,-1.0902
Sr2ZrOs,42.9191,40.3068,-2.6122
CsRb6,2.3544,2.1052,-0.2491
YTe2Br,26.6437,26.322,-0.3217
RbPtSe,41.941,32.2131,-9.7279
RhPb3Br,50.5882,45.8889,-4.6993
TlCuSb2,37.0721,34.4823,-2.5898
Ac2NdYAs4,24.4939,26.9747,2.4808
As2PPt,37.3335,30.0316,-7.3019
Tl2CuSb,38.4506,37.429,-1.0216
NdYZnAg,21.0734,19.7078,-1.3657
ZnCr2CdRe,42.1807,32.4663,-9.7144
Ac4RuPtSe2,58.1426,52.2398,-5.9028
TaRuSe6,42.5355,35.8389,-6.6966
KRbZn2Pt,23.6338,18.3482,-5.2857
ZrH2,32.5026,28.6304,-3.8722
Ca2PmNd6,20.4864,22.464,1.9777
ZnFeOs2,32.453,30.494,-1.959
Cs3Sm(YTe3)2,30.119,29.9619,-0.1571
SbPPb,29.4517,28.5138,-0.938
Zn2In2Rh3,28.5614,23.4368,-5.1246
FeTcNi2,48.4615,39.526,-8.9355
ZnFeOs3,35.7629,33.2271,-2.5357
La4YTl,40.2353,32.1921,-8.0432
Na2SmPaO5,14.0238,13.8769,-0.1469
Li2ScAg,10.0169,8.9853,-1.0317
Ca2PrNd6,17.4686,18.8452,1.3766
Ir2PtRh2,55.2674,46.5378,-8.7296
AcBiAsPt,54.1315,49.7016,-4.43
Ti5Tc4Pt,47.9635,41.3434,-6.62
Tm4TlHg2Rh,27.1952,27.1097,-0.0855
AgHgI,17.9474,16.0142,-1.9332
AcPrPt,31.9188,28.3524,-3.5664
CuTeSe2,33.0586,28.6536,-4.405
Ca(PmAg3)2,26.6989,23.2242,-3.4747
Sr2Ca6Pm,10.7173,10.8801,0.1628
NiIr3,34.2643,37.8396,3.5753
Ca(CeAg3)2,26.8047,23.1423,-3.6624
SnRhAu2N,40.6116,35.8455,-4.7662
Ca(ThAg3)2,35.9679,32.6509,-3.317
RbIn6,14.7237,15.6475,0.9238
AlPdW3,29.0145,31.9657,2.9512
RbLi2HgO,15.6156,12.8848,-2.7308
InFe2Os,28.0029,22.1777,-5.8251
TcPb3I,54.7332,52.0796,-2.6537
ThRh6,28.1249,19.7249,-8.4
MoPb2Br,37.0911,40.4559,3.3648
PmRh6,23.8704,15.2711,-8.5993
PrRh6,19.7252,11.0781,-8.6471
NdRh6,23.888,15.2531,-8.6349
SmRh6,23.8925,15.3015,-8.591
CdSb2C,43.8117,35.4339,-8.3778
Ac2SiBiPt6,66.4177,52.0847,-14.333
ZrH2,32.2679,28.6304,-3.6374
LiRh2W,34.4628,29.8212,-4.6416
Ta3GeC,25.9551,27.5153,1.5602
Ge2RuPb,22.29,24.6746,2.3846
LiRhW2,31.8619,31.7175,-0.1444
TaGeC3,47.8247,35.9443,-11.8805
La2Co2Ge2H,18.5585,16.237,-2.3215
Ca(ThZn3)2,20.7337,21.6461,0.9125
SbAs2Pt,38.542,33.0661,-5.4759
Na2TiVO5,17.4004,14.2693,-3.1311
SbAsPt,31.4503,24.9304,-6.5198
Ca2La6Sm,38.5306,30.6544,-7.8762
AcSbPt4,71.3958,55.1832,-16.2126
CaTi2S5,29.8483,21.001,-8.8473
Y2TeBr,19.1846,20.1755,0.9909
InRe2Au,37.6035,40.6337,3.0302
YTe2Br,26.6899,26.322,-0.3679
CrCuN2O,11.82,10.3923,-1.4277
Ce6Cd2Pb,26.604,28.6592,2.0552
MnInIr,33.5968,35.8786,2.2819
La2CuW,37.8272,33.9467,-3.8806
BaVRu3,36.2074,31.5663,-4.6411
YTeBr2,18.8196,18.9884,0.1689
Mg2ZnHPt,22.8316,17.4203,-5.4114
Ac2LaRh2,48.9602,42.1906,-6.7696
YTeBr2,18.8035,18.9884,0.1849
Ac2MnSb4Pt3,66.8699,54.6981,-12.1718
TaRuSe,33.6253,33.42,-0.2053
YTeBr,21.2108,23.5612,2.3504
Nd2SmAg2,23.2621,22.958,-0.3041
YNi(H2Os)3,26.9229,25.5034,-1.4195
AcPtRh,60.2147,50.7153,-9.4995
Mo3Ir,30.9997,27.3049,-3.6948
Cr2TcBr,44.6947,37.929,-6.7657
YCuAgHg,25.6279,20.1267,-5.5012
Cu2SnIr,42.1711,39.6042,-2.5668
CdP2Se,18.6892,17.015,-1.6742
TaGeNO2,10.4065,10.2493,-0.1572
Ac(NdRh)2,35.5884,32.5757,-3.0128