Formula,E_hull_DFT (eV/atom),E_hull_ML (eV/atom),Delta (ML - DFT)
SnMoI2,37.177,30.6213,-6.5557
MoAsPb2,32.9293,34.7714,1.8421
CeZr5Sb6,64.8362,51.3538,-13.4824
ReAgTe,38.8523,37.831,-1.0214
PuTiGaMo,25.216,28.9923,3.7762
Na2CaTi4,18.8442,16.7825,-2.0617
Cr2IrBr,33.3332,31.1812,-2.152
CrPIr2,48.2684,45.3984,-2.87
CrIrBr2,33.2524,32.4311,-0.8214
TaCr2Ir,51.0298,43.0607,-7.9692
CrAgIr2,33.1604,34.4979,1.3375
CrIrRu,28.5661,27.468,-1.0981
CrSbIr,34.165,30.896,-3.2689
CsCrP2Ir,43.8507,35.5426,-8.3082
CrIrOs2,35.5829,38.1414,2.5584
Cr2SnIr,14.8379,17.2775,2.4396
ZnCrIrOs,29.5085,28.6803,-0.8282
CsLiCa2,8.9471,9.894,0.9469
TmTiGa4,11.1845,13.2233,2.0387
Cr(MoIr)2,21.39,21.3718,-0.0182
CrTcIr3,48.8594,46.2847,-2.5746
Cr3InIr,19.9462,18.5304,-1.4158
CrIr2Os4Ru,37.6887,38.5788,0.8901
LiCrIr2,25.3199,26.1953,0.8754
Hf(IO)2,64.9665,48.7783,-16.1882
CrIr3W,38.0681,38.8729,0.8047
NpUCrIr,48.8539,51.8166,2.9627
PuNiHgRh,31.6243,30.1203,-1.504
CrCdIr,25.7152,25.6696,-0.0457
KCrIr2,29.1403,28.9519,-0.1884
AgMo3I,22.145,21.9623,-0.1826
BeCrIr,11.0522,14.3245,3.2723
CrIrAu,35.3877,36.1998,0.8121
Gd2CrIr,28.7593,29.6971,0.9378
Tb2Sm2Y6Er,19.7497,21.642,1.8923
LiAg(BiS2)2,45.5565,37.1623,-8.3942
CrHgIr4,31.6847,33.0243,1.3396
Sc2PdS,34.2034,31.5137,-2.6897
TlCu2AsCl6,10.5888,10.1412,-0.4476
Cu2AgPbCl6,12.2463,11.6972,-0.5492
YPdPt3,59.9508,41.4902,-18.4606
CrAsIr4,33.7673,35.3456,1.5784
Al2TcAs,41.0894,33.5728,-7.5167
Ac(CdHg5)2,7.6019,8.108,0.5061
CrIrPt2,58.9498,44.7816,-14.1682
NaLiPdO2,27.0977,24.7075,-2.3901
AlTcAs2,41.4938,36.9926,-4.5012
Zr2ScPt,64.8595,52.4195,-12.44
AlTc3As,69.2022,57.7019,-11.5002
ErTiGaAu,28.3578,26.3665,-1.9913
SiPCl2,7.1397,7.529,0.3894
RbBi3Br,35.8206,35.988,0.1674
SiP2Cl,7.7788,7.3139,-0.4649
La2Nd(AgPb)2,41.9393,36.4058,-5.5336
HoNpPd6,24.9339,27.0983,2.1645
TiGaFeAg2,21.2187,16.8576,-4.3612
YErPSe,35.893,30.5823,-5.3107
Ba2CaI,6.5455,7.2927,0.7472
CrCo2Ir,17.5436,18.7683,1.2247
Sr5Zr2N6,16.121,13.449,-2.672
K2Zn12Au7,21.0733,21.4442,0.3709
Ba2YNb,60.4332,51.1261,-9.3071
CoGe2Rh,18.2832,16.3974,-1.8858
Lu2BiRu,33.8837,37.7056,3.822
Nd2PdSe4,30.6916,27.9364,-2.7552
Na5PbAu2,33.6516,30.9702,-2.6815
Rb2Sr4N,12.7657,12.6861,-0.0796
YNb3(MoN3)2,51.1643,43.5456,-7.6187
Ho3(TmTh)2,39.7851,43.0796,3.2944
Pr2Sm2Rh3,33.0637,26.1009,-6.9628
PrNdHg,6.3356,8.6778,2.3422
Ca3Y(ErSe3)2,50.4809,41.5387,-8.9422
NaSrLa2Rh,37.8613,26.6764,-11.1849
CaY3(ErSe2)4,37.8387,32.7834,-5.0553
Ga2SbC,26.4991,21.562,-4.9371
LiHoSnBr6,12.2876,13.6506,1.3631
Na2PbAu,34.6229,32.9755,-1.6474
CeY4Pb15,43.1481,44.2964,1.1484
Ti3Ga2C,8.1346,7.912,-0.2226
Na2Tb(SmSe2)3,34.9486,30.0701,-4.8785
LiY3(ErS2)4,36.4247,29.6123,-6.8124
Pm2ErPt,42.2446,38.2508,-3.9938
AlCI2,28.449,22.1438,-6.3052
ZrAgSe3,49.0706,39.6224,-9.4481
BaSr4Pb,17.8814,19.126,1.2446
Hf6TlNi,114.9533,85.4712,-29.4821
LaHfTlSe2,69.3154,52.9095,-16.4059
Ti12GaGe6,7.8026,8.6913,0.8887
RbCu(ICl3)2,7.7475,7.8078,0.0602
Y3Er5P,27.2694,25.9033,-1.3661
Tb2EuPb,33.2377,35.3594,2.1217
Li2TbIn2,11.9704,12.4629,0.4925
Ho4Ni3,18.4894,20.5201,2.0308
Ho2Tm3In2,26.7482,28.9917,2.2435
CaPm6Y2Er3,24.1567,24.7901,0.6334
BeCdHg3,4.5755,4.4273,-0.1481
SiTePtPb2,51.22,43.1892,-8.0308
SmY3(ErSe3)2,32.7989,28.6969,-4.1019
K3CuCl6,2.7472,3.1093,0.3621
LiY2Zn4Ga3,9.5987,9.2795,-0.3193
Nd4PtRh,32.9112,27.9603,-4.9509
BeTe2Pb,34.2132,33.7259,-0.4873
YEr3Pd,25.2848,26.033,0.7482
Ir4OsRh,44.143,45.76,1.617
LiScSnPb,27.3938,25.7397,-1.6541
TcAs2I,29.3867,27.9997,-1.387
Be5Au3,17.6955,19.1973,1.5018
LiSnSb2Te,31.0863,26.2787,-4.8076
Y3ErPd,18.3337,18.9767,0.643
Sc2MoS,38.7054,38.0438,-0.6615
CaY3Au2,20.937,21.1195,0.1826
Pr2Sm3In2,14.7504,18.1652,3.4148
Ta5Mn4Fe,59.0975,54.1065,-4.991
ScSeS,29.8539,27.173,-2.6809
LuTl2Pb,46.903,48.7716,1.8686
LiSnTe2Mo,37.2041,30.7286,-6.4755
Sc7(GaSn)2,14.1044,12.6203,-1.4841
CaYAu4,37.3148,36.6359,-0.6789
SrMn2Pt,69.4936,53.7679,-15.7256
In2Sn2Bi3,35.0596,36.5631,1.5035
In2Sn2Au3,31.7393,32.9148,1.1755
In2Sb2Au3,35.2173,33.5064,-1.7109
Tm3(HfIn)2,59.7312,49.3799,-10.3513
Ba2Ac2In3,26.5927,28.5711,1.9784
AlI,4.3709,2.6523,-1.7185
Tb3(InHg)2,16.5451,18.6164,2.0713
TbGe3Rh,20.0518,18.8492,-1.2025
CaYMgCd,14.9155,13.0754,-1.8401
AlI,0.0,2.6523,2.6523
AgAsPb2,36.7461,36.2665,-0.4796
DyY(TmBi2)2,39.297,41.4252,2.1282
TiGaAgPd2,18.6583,17.7869,-0.8714
LiTiSn2,20.3726,15.5398,-4.8328
Li2LaHg2,13.7219,10.4099,-3.312
Cu(SbRh)2,33.2545,24.922,-8.3325
Ac4IrRh,57.8775,58.6588,0.7812
YMgV3,83.1692,64.7142,-18.455
Sc2SCl,43.5417,40.9419,-2.5998
La2PmYEr2,28.4869,24.5915,-3.8953
Ti6ZnGa3,0.2561,3.9797,3.7236
LiSn3C,26.055,22.5503,-3.5047
AcY(ErS3)2,45.7193,37.8962,-7.8231
LiSi3Sn,19.9271,13.896,-6.0311
CdInBr2,15.1283,15.7222,0.5939
CdOsBr2,21.948,22.9117,0.9636
K3TiTe3,19.0889,18.5157,-0.5732
NdSm2YCd4,20.3418,22.7888,2.4469
PtRhPb,63.8774,50.5343,-13.3431
PrYHg6,5.1878,4.3409,-0.847
Rb2In2I,13.261,13.5971,0.3362
Ti3GaPt,1.3108,1.644,0.3333
Pr2Ho2In3,14.9118,17.1225,2.2108
ThIn2Ni,22.5978,26.1034,3.5057
AsP2W,80.0368,65.3958,-14.641
LiIn2Sn,13.5137,14.3705,0.8567
HfAlCu,46.2763,34.9819,-11.2945
V2GaCu,64.1746,51.7158,-12.4588
Hf2MnPSe,88.4482,65.3219,-23.1263
Sr3InC,25.3424,21.957,-3.3855
AlZnGa2,7.8963,8.456,0.5597
PmLu6,33.9331,35.5566,1.6235
La3Y4ThBi8,43.6669,42.1426,-1.5243
In2NiGe2,12.4839,11.6367,-0.8472
Y2Er(TmS2)3,38.8675,31.8293,-7.0382
Pu4PdRh,47.0873,47.9577,0.8704
Li2NbN2,21.3521,18.6324,-2.7197
CdBiP2S,29.2346,29.3896,0.155
Sn(GePt)2,43.4137,32.7122,-10.7015
Li2IrAu,22.7223,24.6545,1.9323
Yb2InOs2,34.5857,37.1274,2.5417
Th2Zn,30.3206,36.7802,6.4596
Y3Er(TmS2)4,38.5468,31.7341,-6.8127
NaZr3Mn,86.4172,69.9652,-16.4521
LiIr2Au,34.0913,37.0957,3.0044
Cd4Fe3,11.1985,13.4072,2.2087
Hf(GeRh2)2,51.6836,37.3759,-14.3077
Y5(ErTh)3,32.7133,35.0138,2.3004
CaPm3Zn4,14.1963,15.0702,0.8739
Mo2P2Rh,22.1922,16.185,-6.0072
Zn2MoOs,21.6653,20.988,-0.6773
ZrReW,59.3245,57.4386,-1.8859
ZnMo2Os,26.946,23.5985,-3.3475
DyPHPd2,6.9386,11.7933,4.8547
UTc6,90.4604,78.881,-11.5794
InNi6Ge,10.3594,10.7393,0.3799
Sb(MoP)2,29.8541,22.7832,-7.0709
Tb2YMg6,9.5283,10.9504,1.422
NdGa4Pb,18.2318,19.703,1.4712
K5AgF8,9.5875,7.6658,-1.9218
Sr(ScTe)2,18.9233,17.5536,-1.3697
YErPu2,46.9974,50.0398,3.0424
Hf2SnCl,72.1857,52.6852,-19.5005
La2Y2HoEr,26.6397,23.9658,-2.6739
Na2ZrInF,34.7538,28.437,-6.3169
NaAs3Au,21.5807,21.1427,-0.438
LiFeBr3,20.0012,16.9863,-3.0148
ZnInGa,9.7429,11.5929,1.8501
Er4Cu2Ir,24.5431,28.0565,3.5134
Eu2Sn3,16.0485,18.4114,2.3629
GdTlIn2,29.5826,31.1478,1.5652
CdPb2Se,43.0689,41.9251,-1.1438
ZnInGa,9.75,11.5929,1.8429
YThPa2,53.8777,57.4,3.5223
Pr4OsRh,5.1146,6.389,1.2744
Cd2PbSe,34.6747,33.1094,-1.5654
EuCdSn,16.5492,19.3426,2.7934
Pr4RhAu,6.9723,6.5236,-0.4487
SrAcCl,34.0862,36.6922,2.606
Th4PtRh,58.6166,54.2173,-4.3993
LuAgAu2,39.3899,39.4269,0.037
Na(LiTe)2,21.1572,19.8857,-1.2715
BaSrLaNbO6,1.0622,1.6319,0.5696
Rb3Tl,12.8026,12.0159,-0.7867
Pu3Pt,63.6919,58.8955,-4.7964
Dy3PuS4,45.716,39.2164,-6.4996
Sr2Sc2Tl,14.1354,16.1122,1.9767
Cs3Rb,18.6671,18.8295,0.1624
CsPdIO2,38.4406,32.7164,-5.7242
RuBr2,20.1125,18.48,-1.6325
RbSb3,30.5692,24.439,-6.1302
Rb2TbAuCl6,4.8411,6.9745,2.1333
TbNpBi,42.6879,47.8724,5.1846
LaYErTh2,39.9693,39.7181,-0.2512
CaTiGa4,7.0285,8.7083,1.6798
LiScBr2,12.778,11.8949,-0.883
BaSn4Rh,16.7982,15.8173,-0.9809
BeSiN3,22.4276,17.1611,-5.2665
Sc6Ni2Te3S,23.2774,22.3352,-0.9422
BaCa3Pb,13.4055,14.4819,1.0764
TaMnO4,44.0289,41.5134,-2.5155
CrOs3Ru,34.6333,33.7372,-0.8962
RbZr(PSe4)2,42.9282,33.8346,-9.0935
K(ZrSe2)6,61.0516,47.0272,-14.0244
K(Er3Te4)2,33.7921,32.0093,-1.7828
Ce2NiRh,28.5677,25.9716,-2.5961
Cd2PbBr,32.9108,30.0884,-2.8224
K(Ho3Te4)2,33.3596,31.5959,-1.7638
K(Ga2Pt)6,33.684,24.1203,-9.5638
CdPb2Br,41.2775,38.4462,-2.8314
NiPdW3,30.8029,32.7135,1.9106
AgSbW,83.0887,63.6812,-19.4075
AgSbW2,72.0725,59.4863,-12.5862
ScSnP3,25.1813,21.2616,-3.9197
Ta2BiRu2,22.8041,28.2962,5.4921
TaPt4Rh,73.4854,52.4759,-21.0095
Rb3SrIn,8.4356,7.946,-0.4895
Pr3NdFe,10.9242,9.6416,-1.2826
Ac3(LaHo)2,50.5502,47.3867,-3.1636
Rb2Ca2Sn,7.2578,7.5123,0.2545
ZnRe2W,43.053,40.0662,-2.9868
Ag2SbW,70.1504,54.0621,-16.0883
ZnReW2,34.3059,36.0688,1.763
Al4InP,16.9287,15.5837,-1.3449
AgSb2W,73.6682,56.1686,-17.4996
Er4Cu2Pt,31.0375,29.7302,-1.3074
Nd3ThNi,29.3573,31.5119,2.1547
Zn2ReW,34.7688,31.1522,-3.6166
TlGe3Sb,25.6686,24.2592,-1.4094
ScTc2S,99.558,83.2241,-16.3339
ScGeS3,46.427,36.0394,-10.3876
Er4TlCu2,25.8359,28.2506,2.4148
Li2SnPd2,13.2457,12.8221,-0.4236
HfAs2PSe,62.2833,49.0692,-13.214
TiGaMo2Ru,15.6333,15.046,-0.5872
Ac4TlRh,45.0066,47.2799,2.2733
La2Pm3Hg2,25.0826,21.8817,-3.2009
Tb4TeRh,15.2759,17.483,2.2072
Ni2BPb2,20.4322,22.7933,2.3611
InMo4Cl7,9.7305,5.7808,-3.9496
HfPaSe2,75.8794,62.8858,-12.9936
La2Pr3Nd2,19.7708,16.6937,-3.0771
BeZnP,11.9416,8.9663,-2.9753
Pm5YEr3,20.8501,24.519,3.6689
Pr5(HoTm6)2,21.2601,22.6255,1.3653
Na2Ti2O5,15.8435,13.4772,-2.3664
La2Sm3Th2,44.3983,41.7998,-2.5985
NaCdIn2Cu,18.1632,17.8499,-0.3133
Pr5(Er6Sc)2,18.0909,19.1675,1.0765
La2Tb2Sm3,33.0995,30.2473,-2.8521
Ti3GaI,9.9385,11.6326,1.6941
La2Tb3Ir2,38.0022,34.9733,-3.0289
Pr2FeP,15.1842,13.9249,-1.2594
CsSnBr3,12.0435,13.1679,1.1244
CuMoRu2,25.3698,23.0392,-2.3306
TbY2ErBi5,39.6753,41.0692,1.3939
DyTm2(InPd)3,21.5794,23.8244,2.245
CsAgSn2,24.6077,24.1162,-0.4915
AlRuPb2,31.6033,33.4172,1.814
TaMnBi2,56.1665,54.7736,-1.3929
Tb7YEr3,26.453,28.537,2.084
MnH6Rh7,31.7166,23.0516,-8.665
TbHoEr14,29.1833,30.5038,1.3205
Sm12HoEr7,26.9534,28.8649,1.9115
La5SmY2Er,33.2281,25.0102,-8.2179
Ba6Ge2NO,4.7134,5.1192,0.4058
RbTlPb4,40.7914,42.402,1.6106
LaPrY5Er2,14.6058,14.8193,0.2134
PrNd3Fe,22.679,21.5481,-1.1309
RbTmTl4,39.1937,40.2625,1.0688
Al2CdC,22.7014,19.0471,-3.6543
Be2TcSe,36.5143,31.3616,-5.1527
Be2TcSe,36.6507,31.3616,-5.289
ZrInSe3,46.5734,39.5253,-7.0481
Al(RhAu)2,33.8949,30.4364,-3.4586
Be2TcSe,36.4646,31.3616,-5.103
DyY2HoEr6,21.268,24.1824,2.9144
Al2Zn2Au,11.002,12.7002,1.6982
AgOsI2,27.2065,30.0095,2.803
ScZn4Cd,9.0021,10.2249,1.2228
TlCuAgSe2,33.5177,29.9354,-3.5823
TaPRu2,17.9044,17.483,-0.4215
Pm2DyY6Er,13.4247,16.0347,2.6099
InTe2RuN,45.1881,40.3806,-4.8075
Tl2InTe,40.8384,41.0951,0.2567
TcHgOs,45.7592,43.5954,-2.1638
Sc2ZnCd,9.3191,10.8075,1.4883
HfNpRh4,68.044,52.5079,-15.5361
NaZrF6,19.4019,14.5203,-4.8815
ThZrPb2,67.2363,63.6959,-3.5404
Th4RePb,51.5278,54.6616,3.1338
BeTcSe2,47.5417,38.9823,-8.5594
BeTc2Se,58.9724,51.3996,-7.5729
BeTc2Se,59.3169,51.3996,-7.9173
Sr2Tl2Au,32.4074,34.1575,1.7501
PaCdRh4,46.7169,38.3697,-8.3473
Pd2PbC,38.3165,35.0188,-3.2977
RuPb2F,27.7423,30.3911,2.6487
TaIr2Ru,29.989,33.1292,3.1402
MnNbB2,60.2907,52.1248,-8.1659
Sc3ZnCd,9.0309,10.2178,1.1869
Sc2ZnCd,8.9046,10.8075,1.9028
YEr5TmTh2,31.2347,34.5287,3.2939
Mn2TcP,73.5989,61.5285,-12.0704
ErNpRh4,48.9219,40.688,-8.2339
Nb(NiW)2,39.7736,38.1649,-1.6086
Sr(GeOs)2,23.1068,25.2127,2.1059
ThNbB2,52.1376,49.7553,-2.3823
DyEr3In4,23.9066,25.4146,1.508
Ta2PdRu2,14.8105,20.7891,5.9786
HfPaRh4,58.5926,44.8582,-13.7344
Ta2Pd5,15.8129,20.152,4.3391
PmSm(PuS2)2,41.9692,37.5012,-4.468
Y6Ho12In,23.7933,24.4678,0.6745
Pr2ScPa,15.922,19.5891,3.6671
LiTaSbRu2,23.9646,23.1559,-0.8086
TlPAu2,33.551,35.9728,2.4218
NbV2B,99.8907,81.3663,-18.5244
RbTbCdCl6,6.3194,7.5951,1.2757
Ta(CuRu)2,10.8656,14.3792,3.5136
BaLa6,44.9777,28.9478,-16.0299
TaGaRu2,40.0535,31.7284,-8.325
KTa2Ru,20.0117,22.8791,2.8673
Sc2CuS,43.1479,37.658,-5.4898
TlP4Au,19.0345,21.5888,2.5543
Nd2Dy5Ho,22.2092,25.1446,2.9354
Li2Zn3Cu2,5.2261,6.179,0.9529
Ta2IrRu,37.1785,37.7075,0.529
ZrTa3Ru,47.1568,44.7522,-2.4046
TaSiRu2,27.0971,24.4354,-2.6617
TaSnRu,0.0,7.3376,7.3376
CaTa2Ru,16.1005,24.0514,7.9508
TmSb2Au,36.7572,34.3184,-2.4388
NdSmYEr3,20.5586,24.13,3.5714
Ta2PdRu,26.5616,31.757,5.1955
CaTa2Ru,24.1287,24.0514,-0.0774
Li2TbPt2,40.5837,29.8203,-10.7633
Er4OsRu,22.214,26.6947,4.4806
ThTaRu2,33.4311,38.6415,5.2104
TaRu3Br,24.8017,24.7057,-0.0959
TaRu2Rh,40.6285,37.5091,-3.1193
TaAg3Ru,31.7227,28.3327,-3.39
La2SmYEr5,27.7535,26.044,-1.7095
AcLa2Sm4Dy,36.9453,34.0856,-2.8598
CdCo4Hg,7.5338,9.5484,2.0146
Li2Ag3Ge2,16.0972,14.0006,-2.0966
CaTaRuI2,26.4769,24.4087,-2.0682
Ga3PtPb,34.4905,28.9698,-5.5208
Os2RhBr,36.7282,36.0763,-0.6519
TaAs2RuAu,29.0601,26.6132,-2.4469
TaGaIrRu,50.7177,43.4228,-7.2949
Mg4InTe,12.044,12.6555,0.6115
Ta2GaSbRu,63.2599,50.8089,-12.4509
TaSnRuRh,41.4669,37.9422,-3.5247
TbY2(ErSe2)3,34.2421,30.2228,-4.0193
Pm2SmYEr5,21.8323,24.9956,3.1633
Ta4RuPb,36.4393,39.7532,3.3139
Cd2GeIr,23.1309,25.1386,2.0077
Nb2SiB,74.8267,62.2738,-12.5529
RbTaRu2,35.6919,33.8125,-1.8794
Sm2Y(ErSe2)3,35.0221,31.039,-3.9831
La2FeSb,46.956,34.1885,-12.7675
TaIn2Ru,23.07,26.4716,3.4016
Ta2CdRu2,16.1565,21.7764,5.62
PrVFe,48.6361,38.3652,-10.2709
Rb2Pt2Se,42.459,28.9282,-13.5308
Ta2TlRu,35.7154,39.3254,3.61
ScSeS,41.9709,27.173,-14.7979
SrLaLu2,33.2241,30.936,-2.288
Ag2RuBr,28.3347,23.5109,-4.8238
Pm2AsRu,33.1902,28.5346,-4.6556
Ta4SiRu,32.3297,32.8032,0.4735
Nb3BSe,94.9356,77.5297,-17.4059
TaMn2Ru,54.0193,50.3495,-3.6698
K3ZrTe3,32.2496,28.3915,-3.858
TaSnRu,25.3423,7.3376,-18.0047
SrGeRu,0.0,2.404,2.404
TaOsRu2,27.8162,35.3093,7.4931
FeSbOs,42.6361,40.3278,-2.3083
NiSe7,43.7133,34.5183,-9.195
TeMoAs4,18.5685,17.3632,-1.2053
TaIrRu2,32.5419,33.603,1.0612
Li3TaPb,19.3615,20.0544,0.6929
TaCrRu,54.6086,19.4787,-35.1298
FeSbOs2,42.5634,36.0114,-6.552
Ta2As2Ru,17.2612,17.9179,0.6567
HfTaRu2,52.6359,46.2737,-6.3622
MoAsAuBr2,20.2226,20.8877,0.6651
Sc2Sn4Pd,26.5476,21.9385,-4.6091
TaRuBr2,24.7177,23.5221,-1.1956
Pu3NiBi,55.391,57.6596,2.2687
Cs2LaAs2O7,13.8512,14.1946,0.3434
TaTlRu3,29.8755,31.9725,2.0971
ZnHg2Ge,2.9177,4.2961,1.3785
TaRu2Rh,40.5605,37.5091,-3.0514
CoMo2Br,18.9883,17.9568,-1.0314
TbSm5YEr2,20.3562,22.9568,2.6006
Ta2RuAu,34.2725,38.9617,4.6892
TaSb2Ru,35.7844,32.8643,-2.9201
Li(NbRu)2,55.0111,48.6303,-6.3808
YTa3Sb,49.3956,43.7256,-5.67
FeSb2Se,44.4934,35.7303,-8.7631
MnCu2Br,34.6136,28.8429,-5.7707
TaMn2Ru,62.9603,50.3495,-12.6108
CeSm2PaSe4,40.2468,36.8295,-3.4173
Ta6GaRu,51.0728,48.9039,-2.1689
TaRuBr4,21.5437,20.7187,-0.8251
Nb(AgB)2,36.8515,31.2959,-5.5557
TaSbRu4,24.6324,26.4192,1.7868
TaAlCr2,32.8663,25.9404,-6.9259
Ni2RuSe,19.6168,19.731,0.1142
CaTaRu4,17.8214,21.3839,3.5624
Cu2Ge2Ru,4.9397,7.6023,2.6626
Ta2AgRu,30.8882,32.4032,1.5149
Pr2YErTm5,17.2131,19.2818,2.0687
Zn3GaRu,0.4465,3.1831,2.7366
Nb4SiB,87.9802,72.387,-15.5932
Sr2TaRu,28.848,24.5879,-4.2601
TaIn2Ru,23.3613,26.4716,3.1103
GaTc3Br,61.2301,52.5816,-8.6486
TaIr2Ru,38.8963,33.1292,-5.767
TbAl4CuPt2,27.8311,21.514,-6.3171
TaOsRu2,27.6086,35.3093,7.7007
TaCrOsRu,51.1368,44.692,-6.4448
SrCa2Ag,15.3209,13.1368,-2.184
BaZr2Pb,62.6952,53.3891,-9.3061
PrNd2Ge,13.129,16.0984,2.9695
Na(BiSe)2,42.3126,38.1556,-4.157
Ta2GaRu2,46.5043,39.5911,-6.9132
TaP2IrRu,33.8426,26.5402,-7.3024
CdAg2Br,23.6247,20.8079,-2.8168
Ag2AuBr,30.3894,27.9887,-2.4007
TaCuRu2,12.4353,17.3224,4.8872
TaRu2Br,25.7268,25.9663,0.2395
TaRu2Rh,40.4821,37.5091,-2.973
TaSbRu,33.185,33.3251,0.14
FeSbPb,46.0469,42.1026,-3.9443
Ta2CdRu,27.291,31.274,3.9829
CaSbSe2N,46.7089,36.8817,-9.8272
AgMoOs2Br,33.0633,30.0659,-2.9974
AlPIr2,39.3793,38.5434,-0.8359
Ce2YErBi5,40.552,41.9732,1.4212
NaCdSnPt,38.2199,31.0328,-7.1871
TaAg2Ru,29.6684,28.6901,-0.9783
Nb2Cu2Ru,55.7273,48.6679,-7.0594
TaAsRu,0.0,3.3815,3.3815
TaRuRh2,48.5768,42.26,-6.3168
TaInRu,24.3299,28.067,3.7371
Ba2CaOs,12.1517,14.8037,2.652
Ta2RuAu,34.0845,38.9617,4.8772
TaGa2Ru,32.6843,30.3574,-2.3268
GaSb3Au,38.8135,32.6725,-6.141
Ga2SnAu,17.8156,20.3333,2.5177
RbYZr,25.2345,20.1076,-5.1269
Tm4InRu,9.7927,14.1602,4.3675
Th4InRu,27.9882,33.8913,5.9031
ZnReI2N,69.8166,65.6,-4.2166
Pr2DyEr6,17.0875,19.6712,2.5837
Pr3DySn3,5.4116,8.5474,3.1358
PaTaRu2,33.8558,39.2207,5.3649
Li2In2Sn3,15.9473,15.7098,-0.2375
SrTlPb3,44.6136,45.4625,0.8489
FeSbPb2,48.0571,45.0478,-3.0092
K3Bi5Au2,37.0286,37.714,0.6854
FeSi2Ir,11.6207,10.6059,-1.0148
Y3P5S12,31.9525,23.2733,-8.6792
K2PuF6,7.301,8.9418,1.6409
SiIr2S,32.6402,31.7847,-0.8555
AgAu2Br,34.5413,34.1512,-0.39
NaWI3,27.4923,26.788,-0.7043
Pm(Y4Er3)2,20.9206,22.4079,1.4873
Li2Mg2S3,11.5719,8.4112,-3.1607
TmPu3S4,57.4298,53.9636,-3.4662
Sr(Cd3Sn)2,19.8672,19.612,-0.2552
Na3(LiHg)2,13.0988,10.9602,-2.1385
Be8V3Ir,35.4388,30.3713,-5.0675
TlZnPt2,59.3643,45.7126,-13.6517
TmHCl4,2.1339,3.6562,1.5223
SnP2SO,38.3122,33.3962,-4.9159
Na6Ca,21.9092,17.8078,-4.1014
Hf2CdFe,70.0288,53.273,-16.7558
EuZnAg4,26.82,23.2549,-3.5651
BeZn2Ir,24.5023,19.1183,-5.384
Li2Ni3Rh2,16.8149,13.8727,-2.9422
CsScCdO3,42.8735,42.0284,-0.8451
FeSbPt,58.1281,44.1722,-13.9559
NdZn3Pt,23.3821,19.2507,-4.1314
Be2ZnIr,18.2717,18.0433,-0.2285
MnPS2Cl,45.5893,37.6893,-7.9
Sc2VCd,39.5387,34.5309,-5.0078
Sr2Ga4AgGe3,11.8586,11.9124,0.0538
Sr2GaAg3Ge4,16.5479,15.353,-1.1949
GdSiAg,16.625,15.9716,-0.6534
Li2Ag3Pd2,15.0743,14.0698,-1.0045
Li2Tm2Pd3,15.8477,17.889,2.0412
Li2Sc2Au3,21.6199,23.1247,1.5048
Sc2GaBi,17.8638,19.9266,2.0627
SrLa2Pb,42.2641,33.1929,-9.0713
NbCr4Sb,37.056,31.3517,-5.7044
KHoSe2,27.7882,25.7325,-2.0557
NaNpCuO5,4.1705,8.3079,4.1374
RbCaSc2,11.7952,7.4524,-4.3428
Na2GeTeO6,10.0992,8.9439,-1.1553
Nd8Y5Er,21.3878,23.0122,1.6244
Cs2BeSnS4,33.5055,26.7227,-6.7828
YPu2Au3,49.423,51.671,2.2481
LiAcPrZn,16.8577,18.8047,1.947
Nd2YEr4Mg,23.428,24.9898,1.5619
Cs3Sm(GaO3)2,19.6232,18.0712,-1.5521
Nd2YEr2,19.9487,22.8756,2.927
Li2Sc2Ag3,15.2022,13.5269,-1.6753
La2Be2Rh5Pb,33.0793,24.0385,-9.0408
Hf3BePt3,90.6099,66.3028,-24.3071
Na4Ca4Be4FeSi7(O6F)4,19.8104,17.118,-2.6925
TlCdCu4,16.2686,17.5726,1.304
CuPAu,25.5513,25.3342,-0.2172
BeSiPS2,36.3722,30.3911,-5.9811
AgSnI2,22.0544,21.7765,-0.2778
SnHg2Rh,14.6176,13.5233,-1.0943
ScSi2Ag,33.6299,27.7492,-5.8806
Tl2Cr,37.4036,37.5938,0.1901
CeCoNi3,23.5148,19.4924,-4.0224
Sn2HgRh2,22.9365,19.082,-3.8545
HfCrNi2,44.8446,36.6558,-8.1888
Nd2YEr7,27.0237,29.3392,2.3154
La3YEr2,38.2583,30.3458,-7.9125
Rb3YEr2O6,10.6701,11.192,0.5219
Sn3PtI,36.2472,30.2992,-5.9481
SnHgRh,23.0623,19.3513,-3.711
Cs2BaNpO6,10.4765,12.3683,1.8918
Ce3TlZn8,15.3652,16.4176,1.0524
Sc2SiAg,30.8725,28.4784,-2.3942
ScSb2SI,42.9377,36.5932,-6.3445
Li(AgTe)2,29.2255,26.348,-2.8775
LiTb2Sb,24.1094,23.3869,-0.7225
La3Y2Si3,36.8129,26.3334,-10.4795
TmCoGe2Rh,20.1654,19.2669,-0.8985
Ac2CoAgSn6,24.3615,25.9388,1.5773
FeSnP2S,30.7606,28.8535,-1.9071
NbBr2N,42.519,36.1903,-6.3287
GdScSiAg,36.7358,33.3897,-3.346
MoPAu2,37.4449,35.1921,-2.2528
Li2Zn2Pt,20.7277,15.9959,-4.7319
Li(CBr)2,35.2758,24.8765,-10.3993
SrMoAu,25.8281,27.5532,1.725
Nd2YEr,23.1464,26.7779,3.6315
Zn3BSb,18.4333,14.7753,-3.658
PmPrTm2,20.3489,22.6788,2.3299
NaCa2O,30.7665,26.553,-4.2135
LiCaEuZn,11.7551,11.6423,-0.1127
ScSiAg2,33.2138,28.4262,-4.7877
Ag2SI,32.7224,26.7256,-5.9968
CuAgSb2,32.1224,26.6513,-5.4712
Re2AgGe,44.4813,40.2914,-4.1898
HPbF5,8.2861,10.2205,1.9344
ReAgGe2,36.5991,31.3954,-5.2037
Rb3MnZn,23.2785,18.3717,-4.9067
Li2ZnGa2,2.4035,3.6859,1.2824
SrTb2Pm,22.9778,25.9573,2.9795
Pr2As4Ir3,21.0226,20.2894,-0.7332
Ir4OsRu,41.5237,43.2782,1.7545
Li(PrAg)2,6.9494,6.9998,0.0503
AgSbAu2,39.4919,37.4298,-2.0621
LiNd2ThTe5,29.9605,30.0153,0.0548
Li(NdAg)2,18.7225,18.8832,0.1608
AlCd2Si,24.5016,22.409,-2.0926
OsRu2Se,23.6852,26.9587,3.2735
Mn2Si2Pb,56.2991,46.0414,-10.2577
Zr2TlNi2,45.0128,40.2465,-4.7664
Li(AlAu)2,18.4106,19.4925,1.0818
CuW2Se,25.9629,29.2668,3.3039
SmEu2Zn,22.392,23.7596,1.3676
Zr2Te2I,54.4534,46.3283,-8.1251
Y2TlHg,37.5938,32.7181,-4.8756
Ba2LiPt2,36.8383,24.7018,-12.1365
AcTmZn3,20.567,23.5284,2.9613
BeTe2Pb,34.3421,33.7259,-0.6162
RbNa2CuF6,5.7325,5.3595,-0.373
BaSnMo3,28.9078,23.385,-5.5228
BaSr2Mo,12.856,12.6677,-0.1883
Ce2Zn4AgAu3,24.9649,25.4096,0.4447
EuZrZn2,35.3145,31.3706,-3.9439
SmY2(Er2Tm)2,25.8062,28.0036,2.1975
CdCu2P,13.8482,14.4302,0.582
Tb2CI,27.6494,27.7718,0.1224
Cd3TcGe,33.0588,30.5214,-2.5375
NaZr2TaPd,56.1534,47.2455,-8.908
YCrC2,51.9381,42.5281,-9.4101
ScV2Cu,83.5023,65.2537,-18.2486
Sr3RuC,26.5029,23.1597,-3.3432
Ag3PbI6,28.2168,26.5329,-1.684
CoAu3,34.2747,37.589,3.3142
Ba2SrFeGe,13.9885,11.6023,-2.3862
SrRu2C,22.2949,20.7529,-1.542
Pa4RuPt,52.7301,52.3722,-0.3579
ZnGeIr2,24.5778,26.7608,2.183
AcEuZnPb,37.9167,39.9012,1.9845
ThZrZn3,33.0291,31.9786,-1.0506
SmDy2HoTm2,23.8764,28.3006,4.4242
Tb2Ho2Sb3,34.0746,31.4817,-2.5929
AlSiMo2,25.09,21.5949,-3.4951