Formula,E_hull_DFT (eV/atom),E_hull_ML (eV/atom),Delta (ML - DFT)
TaBe2Sb,26.2013,23.4365,-2.7648
Ta2BeSb,32.6789,31.6818,-0.9971
YPt2I,48.7642,35.9635,-12.8007
In3(SnPb3)2,34.6941,35.6362,0.9421
AlCo3Ni,31.2812,21.6184,-9.6628
Mn2GeC,68.0089,54.3535,-13.6553
Tl2Te2Au3,43.5019,44.6605,1.1586
AcV(H4Pt)2,30.9253,24.0997,-6.8256
HfTaTe4,51.3257,46.0515,-5.2741
RbBa2Se,9.02,8.1051,-0.9149
GdTlPb,43.9844,46.0032,2.0188
ErPaIrRh,46.5848,47.2492,0.6644
MgOs5,35.8932,39.5127,3.6195
Y2ZnHg4,15.1008,12.4024,-2.6983
GdTl2Pb,45.5907,47.1054,1.5147
CdIr2Pb,40.2169,42.6658,2.4489
V4CoC,89.6006,69.0053,-20.5952
ZnCr2Si,11.5176,10.1091,-1.4085
Li2GdPb,20.4067,22.5018,2.0951
CeLuNi2,22.841,23.1947,0.3537
As2Pd6Se,25.7071,25.8124,0.1053
Y3AlO6,15.7974,15.0266,-0.7708
Na2Ti2Nb,45.9493,38.5893,-7.36
CeGePd,16.5741,19.9285,3.3544
YCr4Hg,22.2192,18.6883,-3.5309
YReHg4,15.4378,14.6675,-0.7703
SrSiTe3,27.2732,23.6156,-3.6575
Ag2AsBr6,15.5669,14.513,-1.0538
GdTlPb2,46.1115,47.8657,1.7542
TcMoRh,52.914,46.9394,-5.9746
Al5Cr,0.0,1.5139,1.5139
SmSb2Pb,41.3715,37.6349,-3.7366
Al2ZnGe2,19.2346,15.8686,-3.366
Np2AsPt6,75.8412,56.8657,-18.9754
YCuNiHg,43.0099,38.0317,-4.9782
YCoHg2,20.9129,17.6278,-3.2851
YHgP4,13.9054,10.9315,-2.9739
Eu2Co3Si,7.6841,10.3067,2.6225
AlTcCl2,27.7555,23.7812,-3.9743
GaSiNiOs,10.9123,13.4557,2.5434
Ce3Zn7Cd2,13.6779,14.9992,1.3213
YAl,23.3306,6.148,-17.1825
Zn7Pt2Au3,31.0048,26.4995,-4.5053
BaTaAs2Se,32.4467,30.8576,-1.5891
Eu2CuPb,28.6336,30.636,2.0025
MgCoW2,25.7605,26.7842,1.0237
Zn7Pd2Rh3,19.4668,16.5774,-2.8893
InFeSe2,31.8346,25.417,-6.4176
Y8ZnHg4Ru3,28.3767,22.1835,-6.1933
Tb5Sc,23.0337,25.4261,2.3923
ReAgAs2W,54.9379,45.006,-9.9319
Y(AlSi)2,28.8709,23.6373,-5.2336
Y(ThOs)4,40.5002,43.9689,3.4686
Tl2SbPb,49.7862,48.0976,-1.6886
CrSiPt,38.0018,27.4645,-10.5373
ReMoI3,28.8094,26.766,-2.0434
GaOsRu,0.0246,9.0086,8.9839
Ac(TbAl3)2,14.6746,16.8312,2.1566
Tb(ErAl3)2,10.9806,13.1729,2.1923
GdYHg2,19.3765,18.0174,-1.3591
Sr(Al3Ag)2,10.5253,10.0401,-0.4852
Ti2Nb2Mo3,48.308,44.125,-4.183
RbNa4Sr,19.0158,15.6993,-3.3165
PuI,47.0253,48.9253,1.9
YHgPCl2,34.4987,33.7373,-0.7613
TbHfTe4,55.5607,48.0097,-7.5509
Mg2VSn2,31.2533,27.293,-3.9603
TcMo2Rh,43.1668,38.977,-4.1897
K4V2Tc,58.6058,46.7447,-11.861
P3RuSe,15.0553,14.8212,-0.2342
Ti2CuRh,16.0708,14.9976,-1.0732
NaLu2In,27.8352,28.665,0.8298
BaZn4Mo,8.8934,9.2707,0.3772
LuAlIn,18.4457,20.8785,2.4328
Sc7Pb,10.9139,12.3885,1.4746
Tm(ThAl3)2,19.6514,22.2469,2.5955
AlTl2In,28.7722,31.4537,2.6815
CaTcRu3,30.1993,28.908,-1.2914
CrNi2Ru,19.9741,21.1856,1.2115
Al2Cu2Mo,11.6771,9.0662,-2.6109
Ta2Ti2Nb3,72.6507,63.8377,-8.813
Y(ZrAl3)2,31.6766,26.3818,-5.2948
AcTlTe4,42.6084,43.1701,0.5617
Nb(Al3Zn)2,19.3819,17.4466,-1.9353
CrSiAg,19.0767,15.8709,-3.2058
Sb2IrPt,49.9297,41.1097,-8.82
TeIr3I,40.848,41.2113,0.3633
Tb5Tl3H,27.2729,29.7488,2.476
TeIrI2,29.0271,31.8177,2.7906
AcPt3Au5,62.9442,54.0859,-8.8582
V2Co3Ge2,41.9451,35.1935,-6.7517
Sc2BiPb,23.7057,28.5022,4.7965
Th(ZrAl3)2,30.8053,27.9655,-2.8399
TmPaTe4,43.3984,43.6471,0.2487
Al(InAg3)2,22.7197,19.5475,-3.1723
Al(CdAg3)2,22.9166,19.8408,-3.0758
TmTlTe4,37.1027,37.2006,0.0979
Ac2Si4Ir3Pt,39.9133,35.4807,-4.4326
Cr5Si,9.8877,9.5263,-0.3614
Y2Ag3Hg4,21.3274,16.935,-4.3924
TlTc2Ag,67.8342,57.4573,-10.3769
Ac(MnP)2,53.2294,47.0118,-6.2175
TcPtRh2,70.0791,52.8235,-17.2556
TcPtRh2,70.0234,52.8235,-17.1999
Ti4NiMo,18.404,18.4608,0.0569
Ba2MnP2,20.4377,17.1604,-3.2773
TcPtRh,69.3231,53.9932,-15.33
CeO3,0.0,0.9306,0.9306
TmIn2Pb,30.4292,32.0772,1.648
Cs(BeBr)2,9.4951,10.2754,0.7803
Li2CuPb,14.9639,16.0835,1.1196
NiBi,17.121,23.2261,6.1051
Al2Cr,0.0011,2.0293,2.0282
NbBAs2Se,54.676,47.0177,-7.6583
Li2LuCu,10.5996,12.2895,1.6899
Ag3Pb4,43.5519,41.4929,-2.059
NaTiTl,31.0998,31.3847,0.2849
Tc2PtRh,80.9437,65.5485,-15.3952
PdRu2C,22.4927,23.0269,0.5342
Zn2SiTc,31.6509,28.5571,-3.0938
TcPtRh2,70.2723,52.8235,-17.4488
CsScNbB2,36.109,31.5534,-4.5556
Rb2P2Pt,26.3256,14.8975,-11.428
SrRe3Sn,39.6133,37.6398,-1.9735
Ce2SiO6,0.0,0.3159,0.3159
YHgBr3,11.8093,10.6911,-1.1182
Hf(CuP)2,39.7804,30.0045,-9.776
LiNiRu2,4.4368,10.6309,6.1941
Sc(ReMo)2,32.9066,30.6801,-2.2265
ScRe2Mo,50.0055,43.8292,-6.1763
TiRu2Pt,31.2303,26.7432,-4.4871
TaZnRu,20.0704,24.3653,4.2949
ScReMo2,41.0264,37.2879,-3.7385
LiCeF5,6.8738,8.5132,1.6394
Li2Ce2Si,17.3155,17.5612,0.2456
MoH2(WSe3)2,34.4158,30.8037,-3.6122
ScRe2Mo,50.0968,43.8292,-6.2676
RbNb3B,88.9787,71.7406,-17.2381
Li2SiF,9.3727,8.8892,-0.4835
Rb(PRu)2,26.5235,24.0496,-2.4739
ScRe2Mo,50.2912,43.8292,-6.4619
Cs2Al2Ge3O10,1.8234,2.3464,0.523
Ta2Os2O,22.2031,27.4368,5.2337
V2Zn2Co3,49.4096,36.4501,-12.9595
CdPb2Au,42.9509,44.7399,1.7891
Ac3GaPt5,71.2121,55.7311,-15.4811
PaAg3Te5,41.1991,37.9879,-3.2112
Mn2ZnIn,56.7441,48.0847,-8.6594
Np2CdGa,42.0595,44.9665,2.9071
Sc2Re,45.901,39.429,-6.472
Cd2PbAu2,37.0572,38.0906,1.0334
ZnSbTe,31.969,27.8885,-4.0805
TbTm2Al,17.9947,21.3791,3.3844
Tb2(TmAl)3,18.9914,20.7062,1.7148
Ba2SmPaAs4,15.7963,17.7785,1.9823
Co2TcAs,37.706,31.3333,-6.3727
Tl2SbRu4,31.4448,31.4649,0.0201
Ti4SnBi,1.7637,5.9527,4.189
YRh2I,28.0308,22.4792,-5.5516
Tb3(TmAl)2,20.8156,22.8498,2.0342
Ce2Mg,13.082,18.8082,5.7262
Pm2ErPb2,31.4956,35.5363,4.0407
LaY(ScHg2)2,13.4982,11.081,-2.4172
CrNiIr2,36.1946,38.3232,2.1286
SmY2(GaAg)2,19.1545,18.9327,-0.2217
ZnGeSbTe2,29.7588,26.5475,-3.2113
Sm4YAg,19.5755,21.3622,1.7866
SrMoPd2,15.0195,14.6424,-0.3771
LaMn2Be,56.803,44.7449,-12.0581
K2(SnSe2)3,33.5081,28.3316,-5.1765
ReTe3,42.831,40.7595,-2.0715
PmNd(YHg)2,20.5278,18.6195,-1.9084
Sr2TaTe4,36.9044,32.5125,-4.3918
TePbI4,30.8554,30.9097,0.0543
Sb2TeMoPt,50.0958,37.4896,-12.6062
Y2AgSnPt,42.6101,31.9738,-10.6364
Ba2SmUAs4,16.0883,17.8731,1.7848
ThSc5,9.5271,12.4352,2.9081
CuSi2Ir,20.9274,19.1248,-1.8026
Pm2PbBr,35.1377,34.5786,-0.5592
TlTeI4,30.5943,30.3894,-0.2048
Pm2Y2Hg,25.5185,23.0914,-2.4271
Hg3Au,10.7898,11.6132,0.8234
TbY3Hg4,21.731,17.9896,-3.7415
Ca2YTmHg4,8.211,8.2971,0.0861
Er2Ga2Ni5Ge,7.7423,9.9506,2.2083
Li2YErHg4,11.8531,11.0725,-0.7807
YTcHg,82.4337,70.9202,-11.5135
CoSiRh,22.9765,17.8852,-5.0912
LaGe2Pd2Pt,31.8915,25.2196,-6.6719
ReRuS2,42.6303,38.0746,-4.5557
Cs2PrPCO7,9.8302,6.3295,-3.5007
RbSrRu2Se,39.4595,33.5416,-5.9179
ThI,38.8449,44.2592,5.4143
BaTaSi,19.1226,18.2475,-0.8751
Np2IrOs,56.3262,61.2388,4.9126
Al(GaAg3)2,23.0756,19.4407,-3.6349
InSbPt2,60.7404,44.3657,-16.3747
NaTeW2,31.1806,34.696,3.5154
Nb2V2W3,93.6909,82.2396,-11.4513
InNiIr2,22.5072,27.2798,4.7726
Al2TcSe,39.4228,32.3152,-7.1077
Sr(AlN)2,0.0915,2.1378,2.0462
Tb6Nd2SmY,20.1496,23.0599,2.9103
CrSiAs2,22.4627,19.5643,-2.8983
Al2TcSe,39.1676,32.3152,-6.8524
CuSi,8.2673,7.6644,-0.603
Sc3Tc,64.4457,50.3127,-14.133
Hf3ZrRu,110.705,81.1684,-29.5366
Sr2Zn15Pd2,9.0565,9.7827,0.7262
Sr2Br,14.9715,14.9828,0.0113
Ca7Cl,4.7697,5.6923,0.9225
V2Re2W3,64.5215,60.2884,-4.2331
NCl,0.0,2.423,2.423
Mn6GeB2,58.9187,47.7734,-11.1453
Rb2PtI7,24.7916,22.1686,-2.623
Al2TcSe,39.4525,32.3152,-7.1373
Y2Ag2Hg3,23.0366,18.0933,-4.9433
LiAl2W,14.2151,15.218,1.003
ZnC3Br,43.6828,30.6874,-12.9955
Tb2Si4Pt3Rh,41.9052,29.2439,-12.6613
Os2Pt2W3,126.81,97.961,-28.849
RbLa2Br8,16.2244,13.7656,-2.4589
Pr3(YHg)2,12.2686,9.7743,-2.4943
CsSrNb,49.6593,44.6348,-5.0245
AcMg2ZnPt2,42.6482,33.0467,-9.6015
Rb2TaCrI,36.0893,26.3748,-9.7145
Ca2YHg6,6.1356,5.6114,-0.5242
CaSi3Hg,14.6991,9.092,-5.607
Tb4TeOs,12.8207,18.2885,5.4678
CuRePb4,44.1685,45.1786,1.0101
SiTcSb2,49.8329,40.204,-9.6289
KAgAs,17.7185,15.9551,-1.7635
LaAuN2F,22.2899,18.6929,-3.597
CaPb2W,37.8537,39.9046,2.0509
BaZrC2,48.8421,36.7642,-12.0779
Na3FeBr,23.9026,19.4542,-4.4484
Pd(PbAu)2,39.6358,41.8423,2.2065
Sb2MoPb,40.0994,35.8437,-4.2557
BaCrSi,14.2589,11.4838,-2.7751
YAgHgAu2,35.5737,32.3063,-3.2674
MoOs3Ru,36.5545,35.9623,-0.5922
Os2PtRh,55.6516,47.7087,-7.9429
NaAs2AuBr,20.9037,20.6722,-0.2315
BaTa2MnSe,46.9646,41.473,-5.4916
BaCrSi,13.9719,11.4838,-2.4881
YAgHg2Sb,25.6515,19.8004,-5.8511
Ac2ScIrPt,52.7096,44.9406,-7.769
BaZnHg2,1.5379,2.4175,0.8796
AcScPtO4,57.183,50.3716,-6.8114
LaMn2Be,62.9771,44.7449,-18.2321
MgMnIr,48.4162,44.2859,-4.1303
LaYHg4,16.4466,12.1215,-4.3251
YZrAgHg,44.8525,36.0946,-8.7578
FeTcTe2N,36.1568,32.8816,-3.2752
Ca(AlSi)2,20.2391,17.1039,-3.1352
LaAl3V,39.5172,30.0661,-9.451
YAgHgRh2,36.9165,26.6749,-10.2416
CsBa2Ta3O10,7.0937,7.3827,0.289
La6Nd2Al,40.3494,28.4891,-11.8603
CoSCl,21.9219,17.9291,-3.9928
MgAsP2,14.2821,11.9513,-2.3309
Ac8Sm6Pt,50.3214,50.0282,-0.2933
ZnSe3,38.0676,31.075,-6.9925
AcSmZnPt,45.9868,40.5772,-5.4096
Nb6AlRu2,98.0417,81.8695,-16.1723
Ta2Nb6Al,102.9791,86.8691,-16.11
MgZnSe,19.9052,17.5989,-2.3063
Fe2RuPb,37.8378,30.6977,-7.1401
NaBeNi3,9.0393,9.741,0.7017
Y2Al4Ag3Hg,25.2052,20.1574,-5.0478
BaNaMg14,4.3373,4.2883,-0.049
NpMnRu2,50.4816,49.0909,-1.3906
Ba3ZrRu,23.6928,19.8653,-3.8274
Mo4Ru3,19.0461,19.1081,0.062
Hf3Ru2,81.7455,62.5724,-19.1731
SrMg2TlIn2,18.0003,19.0767,1.0764
SmYHg4,12.0846,11.2003,-0.8843
Pr2Nd6SmY,13.6101,15.8556,2.2454
BaCu2Re,25.7385,23.0891,-2.6493
BaZr3Ru,62.4663,49.9445,-12.5219
RbSr3Ca,11.5739,10.4627,-1.1112
Cd3Ni,15.8851,16.2778,0.3926
BeGaI3,23.6191,24.6912,1.0721
Ti3(InCu)2,9.6555,11.9277,2.2722
Ta(MnSe2)2,60.6874,50.4333,-10.2541
NdYPtRh,43.3546,35.0318,-8.3228
K2BiSbW,33.8221,31.4337,-2.3885
Sc2Se3,22.9743,21.4627,-1.5116
Sc3GeC,20.1132,16.8267,-3.2865
CeYHg4,12.0426,10.9783,-1.0644
ZnFe3H,0.0,0.1191,0.1191
Th(BPt3)2,59.6073,41.9617,-17.6455
Zr2Ti3Cu2,34.5367,28.6293,-5.9074
PrNd2YHo,13.4237,15.9607,2.537
NaMg14Cu,5.4707,5.1378,-0.3329
ZnPtSe2,48.563,36.3582,-12.2049
Tm2PbF8,13.4542,13.0719,-0.3824
NiPt2Cl,47.9854,33.7476,-14.2378
Y2Be4CuIr3,23.9373,21.8537,-2.0837
SrLa2Se,41.4355,29.8857,-11.5498
NaB2CI,32.2474,25.4636,-6.7838
YTm2HgN,36.1894,32.3708,-3.8186
BaSr2Br,10.9969,11.2277,0.2308
Y2Hg2Pb,30.3599,23.5145,-6.8454
In(CuBr3)2,10.9065,10.6754,-0.231
NaLi(ZnH3)2,1.5885,1.5605,-0.0281
NaLi(H3Au)2,9.2069,9.3925,0.1856
Tm4TeIr,28.1652,31.1255,2.9603
TaP,15.6898,19.7782,4.0883
YInHgRh,29.4426,24.4148,-5.0278
Ba3Li(BO3)2,3.5088,3.626,0.1172
CrSiBr2,25.6739,23.7359,-1.938
MnNiRu2,60.2159,50.9936,-9.2224
Cs4V2PO4F9,17.9518,14.2187,-3.7331
AsOs2Ru,22.7125,26.8338,4.1213
Ga2BiAu2,29.7746,31.772,1.9974
Y4HgPd12,23.6043,21.7361,-1.8682
UPaN,13.8346,24.1836,10.349
TaP3Ru,20.227,16.1893,-4.0377
MgRu,10.3863,12.7856,2.3993
Cs2Zr(Ge2O5)3,1.8736,1.7813,-0.0923
TaHgI2,17.3518,19.507,2.1552
Cs2Ga2As2O9,13.6628,12.9173,-0.7455
Pr3(CuSn)4,41.0697,35.3969,-5.6728
CePd6Au,22.0349,23.7717,1.7368
Y2Ag2Hg,28.2385,23.9605,-4.278
YAsRu,19.2696,16.4642,-2.8054
YCoHg,32.1724,26.5997,-5.5727
RbNaMg14,4.0544,4.302,0.2476
TiSbSe2,31.4414,25.7319,-5.7095
BaTa2MnSe8,45.871,38.6438,-7.2272
YCoHg2,24.016,17.6278,-6.3882
Cs2Zr3OF12,15.2224,13.4871,-1.7353
Cs2Ca4U(GeO4)4,18.5016,16.5025,-1.9991
YTeAs2,18.552,19.1573,0.6053
TeRh3Pb,49.6054,39.9374,-9.668
Na2NpIrO5,10.5251,12.8287,2.3037
Dy(AlB3)2,3.9809,6.7515,2.7706
YTc2Sb,95.9312,81.0464,-14.8848
EuTmGa,22.1243,24.6111,2.4868
CdInSN2,20.7254,18.0078,-2.7176
Re2GeC,62.6452,52.9477,-9.6975
ZrCd2InN,33.4214,28.9493,-4.472
CrBSb2,19.8551,16.6979,-3.1572
Y12Tm7Sc,19.4662,20.632,1.1658
Ce3Nb2N7,29.3139,26.5955,-2.7183
Ac2ScSb4Pt3,58.0231,45.4418,-12.5813
BaInSe2N,23.9969,20.5781,-3.4187
Nd3Pa,35.618,38.6794,3.0615
NaNd2PbO5,6.0582,7.5759,1.5177
AcSc(PtO4)2,41.3773,34.7196,-6.6577
Nd3Np,30.0253,33.6835,3.6582
Cu2BCl6,5.1018,3.6749,-1.4268
ScBe2Tl,19.4662,17.7257,-1.7405
AcAl2Pd2Pt,31.875,28.6846,-3.1904
Nd3Pa,29.9784,38.6794,8.701
Zr(AlB3)2,11.7564,11.5883,-0.1681
Y(ScV)2,49.5768,41.121,-8.4557
AcAl3PdPt,24.3857,23.2692,-1.1165
LaYSe2,38.6354,31.6568,-6.9786
AcZn2SiPt4,56.1829,41.8356,-14.3473
UTiTe4,39.8706,39.4502,-0.4203
Au3SeN,39.6,38.0934,-1.5067
NaSr(MgTl2)2,30.6271,31.0919,0.4648
Al(HgPd3)2,11.9504,13.9925,2.0421
YHoN,50.0144,43.7308,-6.2835
AcNiPt2,55.5709,44.2884,-11.2826
Mg3IrC,22.6921,20.073,-2.6191
AcZnPtAu,51.6734,46.0994,-5.5741
Ti4CuRe,10.9925,14.7661,3.7736
TlGaAu6,42.8513,44.043,1.1918
Mg2IrBr,15.1165,16.7295,1.613
Tm6Cu2Au,22.2953,25.0972,2.802
Ac4PdPtS2,58.4401,52.8526,-5.5875
Ac3Bi2(Pd2Pt)2,49.5463,46.0521,-3.4941
Ac2Sn6Pt,37.5739,35.6854,-1.8885
MgPSe2,22.1777,18.5517,-3.626
Cs2K3P3O10,12.2366,10.3441,-1.8925
BeAs2Rh,20.9149,16.0614,-4.8535
SrScGaC2,30.6413,23.4403,-7.2009
CrCd2Si,16.2576,15.5313,-0.7264
CsBaNb,52.0173,45.814,-6.2032
Ac2PdPtAu,50.4605,48.567,-1.8935
BeAs2Rh,21.1894,16.0614,-5.128
AlRe2Mo,29.4073,30.4565,1.0491
BeIn2Pb,20.5455,23.9658,3.4203
PuMgTl,35.9156,38.8129,2.8973
Tb2Be4SiPt3,37.2432,27.9853,-9.2579
AcGa2Pd2Pt,37.174,32.4801,-4.6939
AcPrHgPt,36.5645,31.7819,-4.7825
ZnFeIr2,27.6759,26.937,-0.7389
Sn12Sb5Pb3,20.3551,18.8891,-1.466
RuPtC2,51.7369,38.3678,-13.3691
CoHgPd2F,12.3531,10.8033,-1.5498
CuAgAu,28.4668,28.8893,0.4224
ReAs2Ir,26.4597,29.1037,2.644
Nd3Ga2GePd9,18.1991,19.2732,1.0741
BiSb2TeAu,47.8537,42.7589,-5.0948
Ac2TlPt,66.6431,62.5176,-4.1255
AcPrPPt,37.272,32.8646,-4.4074
ZnPt2Se,58.6166,42.1882,-16.4284
NpFeTc2,64.1505,60.4714,-3.679
Pb2CS3,51.2557,42.6606,-8.5951
Na2BiSb2,35.3847,30.2484,-5.1363
In5(PbO4)3,3.1985,4.7106,1.5121
Mg3SiP,8.1535,8.163,0.0094
NaAc2NiO5,12.6241,13.7266,1.1026
ZrPbSe2,22.1964,17.5195,-4.6769
ReAs2Ir,26.4845,29.1037,2.6192
Rb12Pb3Au5,14.7322,15.062,0.3298
Li2AcPtO4,34.2607,30.5185,-3.7422
Ti3(PdRh)2,20.6017,19.0919,-1.5098
Re2AsIr,33.8244,37.4251,3.6007
HfThZrSc,78.4079,65.6437,-12.7642
Tl12Pb3Au5,42.2709,43.4748,1.2039
YHoNiAu,59.9017,55.8966,-4.0051
LiAlW2,23.3151,25.9907,2.6756
Sr3AlAs3,9.3745,6.482,-2.8925
Y3Tm6Tl,22.8434,25.5386,2.6953
Y2SnB2Ru5,41.5872,37.1818,-4.4054
LaZr3Sb,78.6835,60.2034,-18.4801
Ti4GaCo,31.677,25.3255,-6.3515
NaPm2NiO5,3.5601,4.5151,0.955
Ac2Tl2SiPt4,66.4076,53.2706,-13.137
AcIn2Pd4Pt,32.5398,30.7966,-1.7431
YB2Ru,54.4574,48.0724,-6.385
YSn2Ru,28.4289,25.784,-2.645
Sb2IrO,35.2142,34.83,-0.3842
Al(VB3)2,28.9216,25.0444,-3.8772
BiPt2Pb,55.9638,43.9436,-12.0202
Zr2Ti3Zn2,34.7459,28.8263,-5.9196
AcTl2Pt,64.0172,57.9561,-6.0611
Ti2VGaN,28.7644,24.6066,-4.1577
Ca2InTc,30.9802,28.9427,-2.0375
Ti2In2Cu3,10.0186,11.7931,1.7744
LaOsN3,9.8885,5.0772,-4.8113
Ac4AsPtI2,49.2585,47.4914,-1.7671
YSnRu,31.5291,26.4693,-5.0598
Ac2Cu3Sn4Pt,58.7477,50.971,-7.7766
AcZnSnPt,45.0321,39.6325,-5.3996
YPtI3,34.4042,28.9558,-5.4484
TcSb2Ir,56.7905,50.091,-6.6995
SnPbF4,14.3093,14.7347,0.4254
SrY(AsPt)2,39.9494,29.0194,-10.93
GdSc5,9.1978,11.2977,2.0999
Sc3Pd5,18.3582,16.1854,-2.1728
U3RhN,40.2086,42.84,2.6314
CrCo2Si,9.311,10.5569,1.2459
BaSc2Pb,15.6844,18.1073,2.4229
Co2NiSe,35.6241,29.2986,-6.3256
BaScPb2,27.5876,29.6757,2.0881
SrCuGe2,10.0055,11.9201,1.9145
CaAcPt10,79.7402,55.0203,-24.7199
ScBeTl2,29.7366,29.6596,-0.0769
AcHgPtPb,51.0567,45.986,-5.0706
TcBPCS,45.3349,39.4245,-5.9105
Ba2ScPb,14.4266,16.3163,1.8897
ScSb3Pb,40.7295,34.0233,-6.7062
Hf2Ti3Tl2,58.0534,47.5966,-10.4568
TcAgN2F,27.7829,22.8576,-4.9254
KMgIr,19.931,20.8254,0.8944
ScBeTl2,29.5736,29.6596,0.086
Cs(SrZn)2,13.364,14.0268,0.6628
TaP,0.0,19.7782,19.7782
Ac6Ru(PtI)2,58.5464,53.0916,-5.4548
NpUIr,60.5231,65.3718,4.8487
Ca(B3W)2,9.1875,12.1666,2.9791
Li2Pb3(IO2)2,42.2831,37.597,-4.6861
VAuN2F,39.2883,32.8647,-6.4236
Ac6La2Pm3,51.5283,50.1491,-1.3793
Cd2PdPt2,43.0389,33.4977,-9.5413
Y2B2Ru,75.4284,64.4168,-11.0116
MgSbIr2,33.3722,34.347,0.9748
OsRuC3,51.891,40.0366,-11.8544
RbBa3Se,10.5974,8.7397,-1.8577
Ac4CoPtI2,49.0474,47.4623,-1.585
Y2SbAs2,11.4213,12.379,0.9577
MgCuIr2,28.946,28.2508,-0.6952
Sm5Cu3,18.0471,20.6633,2.6163
AcInPtPb,56.1876,51.2243,-4.9633
Y2HoNi,64.1776,57.1278,-7.0498
MgIr4Se,37.8617,38.8224,0.9608
CoSnHg2Rh,16.3706,13.7689,-2.6017
Re2Ni,33.981,29.228,-4.753
La2(Pm2Tm)3,31.4437,29.9367,-1.507
Ga2SiRu2,11.3827,9.7267,-1.6561
In2FeHgSb,24.9346,22.0316,-2.903
Ac5Dy3,50.6523,53.7626,3.1102
Li2PIr,18.0995,15.6859,-2.4136
Li2AcPt4,59.8944,44.2216,-15.6728
NiSb3Rh,42.4493,31.7248,-10.7245
Dy(HoB3)2,9.1912,11.9962,2.8049
LiAc2GaPt6,66.7609,49.8908,-16.8702
PmYTcPd,71.8762,65.0995,-6.7767
Ti4FeBi,6.5189,9.9683,3.4494
TaVHgN2,44.6618,35.4657,-9.1961
CrFe2Si,18.0158,12.0768,-5.939
Nd2Sm6Y3Pu,26.131,27.8379,1.7068
YBeRu2,9.671,9.2702,-0.4008
YBeRu2,16.413,9.2702,-7.1428
Y2Al3Zn4Ag,21.6711,17.8839,-3.7871
V2Re3Mo2,62.0284,53.5512,-8.4771
PRuSeBr2,23.1178,19.1769,-3.9409
BaEuMgSi,14.4411,12.6625,-1.7786
V2Tc2Mo3,69.6887,59.7968,-9.892
Sc5Hg,4.0618,5.8755,1.8137
YBeRu2,16.5194,9.2702,-7.2492
Ti2PCl2,4.1218,6.9641,2.8423
Rb(SrSe)2,24.6142,20.3788,-4.2354
Sr2MnPb,41.2467,39.3365,-1.9102
Y2Al4AgPd3,23.8291,20.5231,-3.306
TiFeRh,4.4998,3.0891,-1.4107
V2Ni2Ru3,45.3966,39.7138,-5.6828
Ti4NbFe,28.2627,25.4959,-2.7668
KPuTe2,34.6376,35.4355,0.7978
ZnFePb,24.7666,22.824,-1.9425
Dy(PaB3)2,17.8685,20.6978,2.8293
ScBe2Tl,19.5215,17.7257,-1.7959
V2Pd3Rh2,58.4674,47.7664,-10.701
Zn2TeOs,25.0352,26.1162,1.081
Er2Tl2P,32.1084,34.4468,2.3384
YBe2Ru,11.8315,10.1462,-1.6853
V2Ru2Rh3,74.9194,57.3471,-17.5723
VAgPb,66.388,56.9236,-9.4644
V2Zn2Ir3,61.9243,51.5253,-10.399
Y2ClF,43.7166,42.9467,-0.7699
BaV2Sb,70.5219,54.4491,-16.0728
Ta2V2Re3,77.7083,68.6902,-9.0181
LiLaY2C,35.439,26.6553,-8.7837
AcSn(BiPt)2,61.9805,52.6558,-9.3246
Pu(HfB3)2,39.6547,33.0703,-6.5844
Ac(SnPt)4,49.9046,37.809,-12.0956
CrInSi,15.3547,14.6433,-0.7115
V3(CrRe)2,69.1047,58.6738,-10.4309
ZnGa2GeO6,15.8598,13.6748,-2.1851
CrSiHg2,6.5901,5.365,-1.2251
NaAs2PtSe,48.4096,39.0084,-9.4011
La3(Tb3Nd)2,33.2375,29.6962,-3.5413
K2NaCrCl6,10.704,10.4576,-0.2464
TlCu2Si,21.2174,20.4786,-0.7388
NaSr2Br2,16.9858,14.9612,-2.0246
Li5(PbCl4)3,2.7454,2.0098,-0.7357
NaV2Sb,77.6221,61.377,-16.2451
MnSbRh2,60.2417,46.2463,-13.9954
Ca2HfTcNi,53.9163,41.3778,-12.5385
Nb2V3W2,106.6145,88.9201,-17.6944
BeZnMoO4,13.4787,10.8481,-2.6307
PbSeS2,41.4014,32.2212,-9.1801
La2ZnPtO6,36.4917,30.5761,-5.9155
AcEu2I,35.5082,37.0528,1.5446
NiBr3,10.976,11.88,0.904
Ac12SnPt6,69.312,60.5145,-8.7975
BaNaV,48.2511,38.6021,-9.649
ZnTcHg,33.7867,30.1416,-3.6451
CuRe2P,42.8524,38.6061,-4.2464
LiRe2Rh,25.5059,28.3942,2.8883
CdRuPb4,37.0422,39.0232,1.981
Ho2ErB6,9.3915,11.8199,2.4284
Hf(TaB3)2,23.8049,22.4929,-1.312
SrTaHg2,18.1722,14.3123,-3.8598
Co6Ge2C,13.8185,13.2641,-0.5545
Pm3Y7Th2,25.4445,28.6899,3.2454
NaSr3As,19.4386,16.2798,-3.1588
NaHf2NbAg,98.3358,73.7425,-24.5933
Ca2BeSb,22.5141,14.229,-8.2851
YEr7P8,17.3577,18.2851,0.9273
Ho(ErB3)2,9.4994,12.6494,3.1501
Cs4Br2Cl,16.3239,16.9357,0.6118
YC,15.9358,9.9879,-5.9479
ScIr,0.0,7.0443,7.0443
CrIn2Si,16.5576,15.8456,-0.712
NaAlRu3,17.3151,17.8472,0.5321
Si5(Te4Pb)3,25.4493,22.5883,-2.861
ReSiTe,32.6774,31.482,-1.1954
Ho(B3W)2,11.7986,14.8125,3.0139
Y2Pb3,31.4572,34.6099,3.1527
Sb3MoPb,42.1458,35.9088,-6.2369
Te3MoPb,41.9413,38.2184,-3.7229
Sc3Au2,15.5345,18.57,3.0355
CuRuO2,6.2984,7.1906,0.8922
SrAc3Pb,40.737,46.8528,6.1158
LiAc2Sb4Pt3,56.8487,44.4407,-12.4081
CdSiIr,25.9019,26.7745,0.8726
ZnMoPb,25.7161,28.4199,2.7038
ZnInSnO4,40.0859,32.7118,-7.3741
La(ThB3)2,20.4934,20.728,0.2346
Si2Ni2Pd,5.9178,6.1613,0.2436
BiTe2PbI,43.1026,42.0992,-1.0033
SnBi2N,37.799,37.297,-0.5021
NaSn2Pt5,63.8811,44.9296,-18.9516
Y3RuPb,4.8903,7.4428,2.5525
Hf2Ti6Al,36.6753,28.3055,-8.3698
ZnCO2,31.2831,22.2803,-9.0028
Cd2SiIr,24.4461,25.392,0.9459
Cd2Si2Ir,17.9398,17.1408,-0.799
CrRe2Si,26.1435,27.5502,1.4067
LiSbOs2,26.894,32.543,5.649
TbPr2Pb,12.9577,17.0644,4.1067
Ti4GeSb,13.5314,13.4074,-0.124
Sr2Ga2SiO7,11.1093,9.8627,-1.2465
ZnSnO2,54.4371,43.7946,-10.6425
CeYSnPb,38.3341,35.469,-2.8651
Ce4Y3HoS8,36.9697,30.0165,-6.9533
MnIn(H3Ir)2,15.9081,15.2126,-0.6955
FeOs3,31.1729,32.2038,1.0309
Os3Rh,44.1936,44.4264,0.2328
Sr3SnAu,12.0331,14.895,2.8619
YTi2Bi,37.0775,33.6153,-3.4621
RbZnRe2,29.9607,24.3696,-5.5911
Rb2ZnRe,23.4698,16.5119,-6.9579
ScI4,15.2186,17.6011,2.3825
LiAc3Pt2O9,27.6534,24.3353,-3.3181
RbZnRe3,38.9357,33.4589,-5.4768
KSc,9.5189,9.8538,0.3349
La3Sm3Tm2,36.4495,30.5276,-5.9219
RbSr2Fe,17.256,13.9403,-3.3157
CrSiIr2,28.5998,28.7864,0.1867
RbLiY2,10.3324,10.6947,0.3623
Dy6Y3Ho2Tl,26.0943,27.6201,1.5258
TlCu2Si,21.2564,20.4786,-0.7777
Tm4Sb2N,29.4417,29.1299,-0.3119
Rb2PPd2,10.0745,9.2878,-0.7867
KZr3V,89.2646,69.3658,-19.8988
Ti4MnFe,21.743,21.1317,-0.6113
Rb2In2P,12.0888,10.7642,-1.3246
TiPdSe4,35.3183,30.4512,-4.8671
PmNpN2,23.1826,27.442,4.2594
LaSm4Tm3,25.8608,25.9277,0.0669
Ac2PuAl6,24.0722,26.1463,2.074