Formula,E_hull_DFT (eV/atom),E_hull_ML (eV/atom),Delta (ML - DFT)
Sr2Ca7Y,11.0737,9.8786,-1.195
Al2SbPd,13.1655,12.6965,-0.4691
SiMoOs2,31.7782,33.1196,1.3414
ZrVRu3,55.5506,46.8007,-8.7499
Er2HfZn,52.8317,44.9181,-7.9136
Cr2Pd2Br,18.6364,18.3029,-0.3335
Te2MoPd,33.5646,30.5425,-3.0221
Te2MoPd,33.0148,30.5425,-2.4723
TbEr3Pb,19.6866,25.4048,5.7182
SiMoOs2,31.9898,33.1196,1.1298
TeMoPd2,27.1762,25.1904,-1.9858
LiYPAu2,33.3962,29.2871,-4.1091
Ge2Bi2Sb,30.8796,30.2935,-0.5861
NaSiIr2,31.5962,31.054,-0.5422
CdAgIr2,34.8301,35.4864,0.6563
Pm6Ga2Sb,18.0814,20.3874,2.306
Tm6Ga2Sb,22.1804,23.838,1.6577
LiTb2Pa,30.3877,33.6272,3.2394
CdAgIr,31.9644,31.5375,-0.4269
Ac2NdGe3Pt4,53.0123,42.258,-10.7543
Ho6Ga2Sb,20.5275,22.4565,1.929
Sr6Ga2Bi,13.8556,15.83,1.9744
Sr6Ga2Pb,13.7892,15.4125,1.6233
Sr2TlW,35.6713,29.7983,-5.873
SmSnAu,16.093,21.1456,5.0526
Be2SiPb,28.6187,26.7425,-1.8763
Y2MnTl,44.6448,41.4743,-3.1705
Sr2TlW,38.6356,29.7983,-8.8372
BeSi2Pb,31.9647,27.4981,-4.4667
NaEr4TmSe8,38.1286,33.4446,-4.684
Ac2UP3Pt4,55.8067,45.1884,-10.6183
Sr2NbCl,48.0505,42.268,-5.7825
In(ReS)2,36.7841,33.0157,-3.7684
SrNd2Sm,22.1621,24.7939,2.6318
BaNi3S5,35.9054,24.9421,-10.9633
ReBi2S,52.4776,50.3196,-2.158
Pr4Ga12Pd,9.6993,8.4154,-1.2839
ZrOs,70.286,5.937,-64.349
Ge3RuW,25.4565,23.0721,-2.3844
CrMo4Pb,20.9944,23.0967,2.1023
LiRe2As,23.1363,25.5457,2.4094
CeNd4In15,20.5931,21.8098,1.2167
CrBiPb3,44.6222,45.2597,0.6375
Y5Ru3,21.4127,16.6191,-4.7935
GeRuW,34.3079,31.7733,-2.5346
CoWBr,27.7872,25.7474,-2.0398
ReAgTe2,39.5171,37.3006,-2.2166
Nb2SiIr,78.3045,67.9597,-10.3448
Al2TlMo,19.1155,22.2912,3.1757
Mg2PW,64.7654,54.5719,-10.1934
LiRe2As,23.1118,25.5457,2.4339
AlTlMo2,31.4511,28.0106,-3.4405
ReSbP2,36.7246,35.3395,-1.3851
LaTbIn6,24.2137,23.0635,-1.1502
LiRe2As,22.829,25.5457,2.7167
YMnV3,100.3811,79.4721,-20.909
BeVNi2Pb,39.4464,34.6376,-4.8088
LiRe2As,23.2346,25.5457,2.3111
CrAg3,21.9029,17.9271,-3.9758
Ce5Ga3,18.4035,20.0687,1.6653
SrNbBr,43.6458,38.1925,-5.4533
Pa2ZnSi2Ir5,31.8411,33.5488,1.7077
NbBi3Br,64.6838,59.4894,-5.1944
CoW2Br,30.0751,30.8625,0.7874
Li2(AcPt)3,51.9494,42.8769,-9.0725
CrPPb3,54.0805,49.4472,-4.6333
TbPm3NdTh,26.8274,30.9694,4.142
HfGa5Tc,39.53,32.4739,-7.0561
Cs(Tl2Au)6,48.2427,48.6307,0.388
PrOsRu,27.608,31.2487,3.6407
In(Ga3Ag)2,14.8146,14.1465,-0.6681
SmAl2Au5,32.9395,34.9293,1.9897
Y3MnTl,38.5043,35.607,-2.8972
Ac6As(PtBr)2,53.8484,49.7485,-4.0999
SmPdRhAu,34.2354,33.1997,-1.0357
YGaGePt3,44.7801,31.083,-13.6971
BaSrY2,34.1786,29.3621,-4.8165
Al2CoCl,16.8557,11.8166,-5.0392
Ba(ThGa3)2,20.8063,21.5191,0.7128
SmCuRhAu,31.716,30.7402,-0.9759
SiMoPt2,52.0874,37.2935,-14.7938
CsSb(AuO2)2,33.414,31.7476,-1.6663
Ba(CdGa3)2,10.8513,11.1578,0.3065
SmTmRhAu,37.2149,36.4609,-0.7539
SmEuInAu,29.5304,31.9918,2.4614
TbCe4Sm,25.4125,27.5806,2.1681
Nd2(Ni2Ge)3,14.8088,13.1963,-1.6125
SiMoPt2,52.044,37.2935,-14.7505
BaAlSn2F8,14.8655,13.2011,-1.6645
Re2SiMo,30.7707,29.7764,-0.9943
SrTcPb2,53.4295,51.4115,-2.018
Ac(CeGa3)2,17.7323,19.6129,1.8806
Ca2ZrAs,29.6844,25.9689,-3.7154
Ce2SmGa6,13.3077,15.4224,2.1147
YTm(MgZn2)2,11.3489,11.7373,0.3883
CrPBr2,32.6701,28.7471,-3.923
YZrIn,45.358,39.2454,-6.1126
CrC2Br,45.8664,36.8077,-9.0587
Cs2UO6,11.8012,14.825,3.0237
MgPaCu2,25.8577,24.7629,-1.0948
CrPBr2,33.3118,28.7471,-4.5648
LiTbPuIn,30.9008,31.944,1.0432
Re2SiMo,30.5504,29.7764,-0.7741
SmGa2Au7,37.0678,38.3163,1.2484
Ce(PaGa3)2,22.9574,25.0698,2.1123
InCoAg2Hg,18.8413,16.6574,-2.1839
La(YEr)2,22.399,22.4808,0.0818
TbAgAs2,13.8366,15.8654,2.0288
CaMnV4(CuO6)2,44.3781,36.9535,-7.4246
BeGaSi2,16.6783,13.3558,-3.3225
Tl2CrAs,31.3658,32.2421,0.8764
La(PaGa3)2,25.9169,25.7959,-0.1211
SmHfAu2,65.2546,56.9894,-8.2653
SmHoRhAu,36.6413,35.8914,-0.7499
SrMnRu,43.3995,38.6077,-4.7917
Ga2FeSe,19.0686,15.6576,-3.411
SiTeRu3,29.5854,23.9275,-5.6579
SmPtRhAu,52.1985,43.4507,-8.7477
CdSiSe2,32.7383,25.8172,-6.9211
BaCa2Pb,15.5236,17.1241,1.6005
CrNiW2,33.7419,36.5541,2.8122
RbNaAgI3,17.5218,16.3123,-1.2096
FeOsSe,42.8496,36.7745,-6.0751
Pu2InGa6,23.7954,24.9528,1.1574
In2RuPb,27.514,29.166,1.652
TaPtSeBr2,41.635,34.2246,-7.4105
FeOs2Se,42.8278,38.3512,-4.4766
In(Ga3Sn)2,12.4984,13.346,0.8476
Ge2As2Se,29.3463,27.9451,-1.4011
NaPmPrSn,15.9993,17.4572,1.4579
FeOs2Se,35.6307,38.3512,2.7204
Sr3CrMo,15.6589,14.2059,-1.453
Tm2ThAl,32.5184,36.0681,3.5498
La2PuGa6,24.5378,22.0844,-2.4534
Ca(InTe2)2,26.2763,25.6496,-0.6267
NaNiBr,10.5434,10.3347,-0.2086
ZrW2C,49.2498,47.0131,-2.2367
SmRhAu,34.0571,32.109,-1.9481
Na3AlPb,26.3284,23.6344,-2.694
AlReGe2,39.3604,32.8338,-6.5266
CdPIr2,34.3088,33.2639,-1.0449
BePCl2,5.5653,4.9875,-0.5778
Np4Ga12Pt,27.3934,26.5756,-0.8178
Er8GaP3S4,30.8709,29.5497,-1.3211
KHg2Br,5.0295,5.3736,0.3441
CaScPdRh,22.7154,18.7509,-3.9644
ZrWC2,65.3587,50.8973,-14.4614
RbNa2CrI,18.5219,15.8868,-2.635
ZrWC2,65.868,50.8973,-14.9707
SmEuSiAu,29.5297,30.2128,0.683
Sm(GaAu)2,26.682,28.4086,1.7265
Nd(PaGa3)2,22.9094,25.2208,2.3115
Rb2CoCl6,0.2798,0.8331,0.5533
La(TmGa3)2,17.556,17.3871,-0.1688
ZrW2C,60.0437,47.0131,-13.0306
Rb2NaLa,20.3613,14.5988,-5.7625
Zr2CoBr,59.4795,46.5167,-12.9627
Sm4Tl2Au,35.2692,37.3213,2.0521
TiSbOs,22.5273,24.327,1.7997
Zr2CoBr,59.1863,46.5167,-12.6695
NaCdAgPd,23.1063,21.4647,-1.6416
Ti2Sb2Os,21.3649,20.4781,-0.8868
SiMoRu2,22.0714,19.108,-2.9634
SiMoRu2,21.9568,19.108,-2.8488
CrRuW,34.4429,31.153,-3.29
TbAgSnAu,30.9609,31.8564,0.8954
AcZnCuPt,41.5015,36.193,-5.3085
FeSiRu2,32.4623,23.5876,-8.8747
CrRuW2,35.3922,34.797,-0.5953
Rb2CrP2,23.6392,17.0891,-6.5501
CrRuW2,35.4802,34.797,-0.6832
Cr2RuW,28.028,25.6748,-2.3532
NaNiBr,10.5521,10.3347,-0.2174
SiMoRu2,22.2967,19.108,-3.1887
NaTlZnAg,28.6374,26.5745,-2.0629
BaSiTc2,50.8003,42.7904,-8.0099
TlCoCl2,12.5747,14.7031,2.1284
Ba2SiTc,27.5895,22.8717,-4.7178
Er3Ga3Rh2,20.1292,20.7591,0.6299
Te2RhAu,45.5039,41.6817,-3.8222
La4NiPd3,32.6079,24.8211,-7.7868
Nd(TmGa3)2,14.5504,16.6178,2.0674
SiMoRu2,22.0373,19.108,-2.9293
BeP3Cl,7.3082,5.8788,-1.4294
Er3In3NiRu2,20.2447,22.4484,2.2037
Tl2RePb,45.4993,47.781,2.2817
PbBr2,27.6751,27.2052,-0.4699
NaSi3Pb,25.5566,19.875,-5.6816
CrCo2Cu,23.2903,19.0529,-4.2375
Tl(ZnGa)2,16.6375,17.6112,0.9737
Cr(CuBr)2,19.217,17.0162,-2.2007
CrCoCu,28.3532,22.9076,-5.4455
LaTeRu,36.95,32.0229,-4.9271
TaCdSeN2,23.1549,22.1736,-0.9814
TlZn2Ga,18.8105,20.003,1.1925
TcP3Au,30.8167,28.5995,-2.2172
MgHg2,0.0,0.9762,0.9762
BaZn2Hg,2.2965,3.8693,1.5729
GdMgIn,16.8861,18.9582,2.0721
TcP2Au,37.0963,35.5404,-1.5559
Na2Mn(AgBr3)2,25.1145,22.3818,-2.7327
YRh3,40.3894,31.1017,-9.2877
Tl2PbAu3,46.2272,48.1849,1.9576
Na2CdPt,37.095,28.4744,-8.6206
K(Pb2Au)2,45.1671,45.7899,0.6228
Ac5TePt4,71.0798,60.4506,-10.6292
Cr2InNi,22.0067,21.6518,-0.355
TlRePb2,50.0139,51.9293,1.9154
NaPb6,48.5994,48.6506,0.0512
HfCrRu,46.1886,36.64,-9.5486
RbTl2Cr,27.3589,28.0367,0.6778
CrOs2Rh,35.7601,28.0655,-7.6946
Tb3YN4,24.1977,23.6273,-0.5703
Be2PCl,4.206,4.2533,0.0473
Te2Pb,45.5389,44.3795,-1.1593
SnPb,36.705,38.9863,2.2813
CaCuP,17.9037,16.0647,-1.839
AlAgSb2,31.1145,25.7707,-5.3438
PmErTh2Bi5,51.043,52.5416,1.4986
Ba2ScTc,62.3929,52.9318,-9.4611
ReIrPb,46.3492,49.5437,3.1946
RbCrBi2,27.9573,29.1072,1.1499
CsPuUO6,7.0862,12.128,5.0418
ZrFe2Cu,37.6305,30.5653,-7.0652
NdPuTlZn,38.6485,40.9482,2.2997
Zn2ReIr,40.0167,32.3137,-7.703
Ca2AgBr,12.4343,12.3287,-0.1055
ZnReIr2,44.8927,41.9441,-2.9485
ReIr2Pb,45.6496,48.9557,3.3061
Zn2RePb,38.723,33.5901,-5.1329
ZnReIr,45.2661,40.2316,-5.0345
CaPuZnSi,29.7088,28.2041,-1.5047
Li(PmRu)2,20.802,19.8459,-0.9561
Dy3BiN,20.5877,25.5639,4.9762
Li2Y(PPt)2,38.6556,27.8236,-10.832
Re3IrPb,45.2418,47.2185,1.9767
NaIr2Au,40.5173,41.7677,1.2505
Cr2POs,39.3626,35.8277,-3.5349
TlGa2Re,27.6978,29.7492,2.0514
Re2IrW,40.4181,46.6377,6.2197
TbY4N4,56.9088,47.01,-9.8988
Sr(AgI2)2,23.2249,22.2318,-0.9931
Na3SiPb,28.6543,24.3329,-4.3213
Rb(CuGe)2,4.8004,5.7662,0.9657
Sr2RuRh,34.5451,28.824,-5.7211
PmPr2PtO5,9.4758,4.5689,-4.907
BeGe2N,28.5808,24.9651,-3.6157
CuGeP,12.7363,11.565,-1.1713
TlGaRe3,37.7904,39.4758,1.6854
Ce4Ga12Ru,12.4208,13.4373,1.0165
BeCr2I,15.6029,16.6146,1.0117
Sr4TbTl5,33.0467,34.7926,1.7459
SiTe2P,29.7487,28.1838,-1.5649
TbNd(HoTl)2,30.4975,33.4054,2.908
AcPr2NdSm,16.9322,20.0289,3.0967
GaAsIr3,31.1001,33.0592,1.959
Nd4Ga12Ru,12.3625,13.474,1.1116
Sr4FeSe,25.7007,22.213,-3.4878
PuNpZnGa,39.5612,42.3669,2.8057
BaCd2Co,13.7304,12.9761,-0.7542
YInTe2,24.9197,24.5865,-0.3332
Sr3SnBr,12.1604,12.6314,0.471
Ag3CBr,35.059,26.6404,-8.4186
In6Sb2Rh,28.5597,25.4254,-3.1344
AsIrPb2,39.7052,43.7332,4.028
PuZnBi2,47.2604,48.7665,1.5061
MnGeP2,28.9231,25.8815,-3.0415
SrGdAl2,12.243,14.1953,1.9524
Ti2Si2Te,9.8009,9.5717,-0.2291
Sm2Al3SiAu4,29.6813,29.8048,0.1235
YInTe2,25.2832,24.5865,-0.6967
Zr2Re2Mo,50.405,43.9422,-6.4628
AgW2C,69.2771,54.6459,-14.6312
MnV2GeC,85.177,66.2792,-18.8979
PrPu2As3,27.0705,29.8841,2.8136
TlAgRu,33.9757,33.0406,-0.9351
Cs2TcNi,38.6761,35.3765,-3.2996
SmGdAl2,14.6901,17.4001,2.7101
Pr2PuGa6,13.8723,14.7008,0.8285
Pr2PaGa6,13.3452,14.2545,0.9093
ZnSi2Te,20.9888,18.0106,-2.9782
Ac2P4PdPt3,41.9606,34.3993,-7.5613
Ta2SiMo,59.8372,53.7805,-6.0567
NaHoLuTl,34.3151,35.0435,0.7284
SmGdAl2,14.9449,17.4001,2.4553
La2NbCu,58.3681,44.3866,-13.9815
CsTcNi3,29.6458,27.296,-2.3498
Sc(TcGe)2,71.6151,61.9698,-9.6453
Tl2GeSb5,42.0763,35.8487,-6.2276
Np4Ga12Tc,27.6735,28.1785,0.505
KTl2Sn,31.3289,32.7167,1.3879
LiTa2As,20.9925,25.1403,4.1479
CuPb2W,38.4888,40.5812,2.0925
TbHfGa,52.9347,43.2865,-9.6482
PuMg(ZnGe)2,18.2292,19.2988,1.0696
Si2P3Pt,26.1069,20.2187,-5.8882
AcNd2SmEr,29.4711,32.6401,3.169
CaYNb2(Zn3Fe8)2,21.2266,16.8024,-4.4243
Al(NiPt)2,32.9174,24.0927,-8.8247
Y3Pu5H12,0.0,1.0379,1.0379
Tl2CoCl4,17.3159,18.409,1.0931
Tl2RuW,49.6228,46.5685,-3.0544
LiLaInHg,19.7844,16.411,-3.3734
TlRuW2,46.3283,45.0963,-1.232
SmAl4OsAu2,23.87,24.3913,0.5213
AgPPb,29.2802,28.6634,-0.6168
Co2AgIr2,19.7029,23.3685,3.6656
Tb4Ga12Tc,17.1083,17.5285,0.4202
YCu2P,24.9396,20.5166,-4.423
CeGdBi2,40.2076,42.6685,2.4609
Pr2AgPt,27.1999,19.9654,-7.2345
Ta2AgP,29.6235,29.7207,0.0971
Ta2SiMo,59.9333,53.7805,-6.1528
YTmIrRu,29.9627,29.6723,-0.2904
Zr(NpGa3)4,28.0205,27.9968,-0.0237
Ac2Ga6Ru,22.8631,23.2223,0.3592
LiTbSmBi,26.342,28.8394,2.4975
YP2RuS,33.5926,29.9234,-3.6692
Ac2PmPrNd,30.7409,34.3074,3.5665
La2Ga6Ru,18.7535,15.8732,-2.8803
RuPb2W,50.2041,49.5963,-0.6078
Sc2AlCu,21.1297,18.3257,-2.804
Sc2AlCu,16.4452,18.3257,1.8805
Ag5Ir,33.595,30.0203,-3.5747
Rb2RuW,37.2118,33.3976,-3.8142
CeLuTl2,39.7917,41.6597,1.868
AlV2P,81.7699,64.8472,-16.9227
MoAs2Os,23.1656,22.8527,-0.3129
InAg2Ir,31.5915,29.8836,-1.7079
Na(TcNi)2,38.3852,35.739,-2.6462
Tm4Ga12Os,15.0997,16.3239,1.2242
MoAs2Os,23.2121,22.8527,-0.3595
SiTcMo,40.9831,37.5028,-3.4803
LiTcAs,34.3627,31.0391,-3.3237
TiAl3Zn,6.073,6.5313,0.4583
Ag2Ru,27.3234,24.7727,-2.5506
RbNaTe2I,26.845,24.4118,-2.4333
AsOs2Pt,46.284,41.2684,-5.0155
AcDyYHo,33.5795,37.0949,3.5154
AcLa(GePt)2,51.2288,39.8422,-11.3866
Sm2NpGa6,18.4957,20.3265,1.8308
SiTc2Mo,54.4731,48.299,-6.1741
Co2AgRh2,22.4753,18.8317,-3.6436
LiTa2As,21.103,25.1403,4.0373
MnNi2Ag,61.3869,54.2792,-7.1077
TlAs2Ru,26.7264,24.4974,-2.229
Sr(AcGa3)2,20.8566,22.6389,1.7823
NdLu2Al,24.006,26.8327,2.8267
Tl(Ga3Sn)2,15.9393,16.7603,0.821
SmAl4PtAu2,26.9777,24.929,-2.0487
Na3Mn2P2(CO7)2,31.2217,28.3112,-2.9105
Ac2Zn4Ir3Pt,42.2953,36.2752,-6.0201
Y2MoPS,45.6321,35.5766,-10.0555
Sr3VBr,37.9904,31.9508,-6.0395
Tm(NpGa3)4,24.0649,25.3369,1.272
OsRuAu,36.0214,40.4492,4.4278
Tm4Ga12Re,15.0265,16.064,1.0376
Pa4Ga12W,23.6899,25.2715,1.5816
U4Ga12W,24.1723,25.8139,1.6417
YBeMo2,26.9911,19.5041,-7.487
Ca3BCBr2N,1.3372,2.8867,1.5495
Cs2UAgO6,13.7181,14.7664,1.0484
Al2IrRu,20.2946,19.2234,-1.0712
Nd2LuAl,21.5848,23.6674,2.0825
LiPaFe,38.4644,37.1691,-1.2952
TbGd2In,26.0401,28.951,2.9109
LiTc2As,49.2088,43.0204,-6.1884
Zr(AlGa)2,19.5217,17.7837,-1.7381
AsRu2Rh,36.7952,29.4362,-7.359
As2RuRh,25.8352,22.9082,-2.927
CoAg2Mo,21.7091,20.1391,-1.57
Ac2MgIn6Ag,24.8721,26.3937,1.5216
NiAg2Sb,33.2898,26.7161,-6.5737
NdEuTl2,38.366,40.4465,2.0805
Na(CdSb)2,28.1758,24.1811,-3.9947
Na3Ta(CuSe3)2,34.4607,28.3558,-6.1049
SrLa2Br,33.7576,24.3389,-9.4186
Ac2Sn4Ir3Pt,42.5545,41.3816,-1.1729
PmEu2Tl,33.075,35.027,1.952
K2YMo,27.2689,19.1772,-8.0917
BaZnCd,8.8511,10.1409,1.2898
SiTc2Mo,53.8517,48.299,-5.5528
SbAsRu3,24.3151,21.861,-2.4541
Si2AgPb,28.975,24.4942,-4.4808
NaMnCdSn2,38.0551,35.2863,-2.7688
BaEuAlTl,29.58,27.5551,-2.0249
Si2TcAg,38.8173,31.1522,-7.6651
SbAsRu,7.6965,23.7449,16.0485
LiTc2As,49.2376,43.0204,-6.2172
Cd4CoAg,19.4937,19.2791,-0.2145
SiTc2Ag,58.1554,49.2878,-8.8676
AcEuTlBr,38.0984,39.6967,1.5983
Ca2SbBr,23.871,22.785,-1.086
SiBi3As,46.7861,44.4493,-2.3367
NaLiCuAu,19.6425,19.8796,0.2371
AlCo2Ag,24.1684,18.0904,-6.078
HfMoP2,41.7442,31.7858,-9.9584
NiAg2Ru,22.3234,20.9555,-1.368
RbCrW2,19.6141,22.615,3.0009
Al2CoAg2,21.129,15.4323,-5.6967
BeCd2Re,50.334,42.1253,-8.2086
Sm4Si3Au,23.2323,22.2514,-0.9809
BeCdRe,60.018,50.1835,-9.8346
Ac4Ir2PdPt,55.7867,54.4256,-1.3611
BeCdRe,60.2196,50.1835,-10.0362
Er2HfGa2Rh5,38.4921,29.888,-8.6041
LiTe2As,23.6259,23.4178,-0.208
Pm2(GaIr)5,25.238,27.2918,2.0538
LiTlAs,20.3634,21.8796,1.5162
Mn2CrRu,56.0548,47.4916,-8.5632
SiTe2Mo,31.4827,26.6506,-4.8321
Be2CdRe,44.3807,37.718,-6.6628
CsFeSb2,39.2219,32.7908,-6.4311
LiTe2As,23.5225,23.4178,-0.1047
SmDy2(YHo)2,23.5798,26.1068,2.527
Re2NiAg,49.5415,38.8309,-10.7106
MnCrRu2,35.2408,33.1729,-2.0679
AsIr2Br,27.7745,29.8441,2.0697
Tl2SiMo,33.9051,33.5084,-0.3967
CaNbGeTeP,45.0526,39.692,-5.3605
LiTlAs,20.4254,21.8796,1.4542
Sm4AuSe3,34.9376,32.6939,-2.2438
Na2Sr2F,15.7728,13.8477,-1.9251
Re(GeSb)2,41.0598,33.8551,-7.2047
Re2GeSb,47.5739,42.3009,-5.273
Er(Tm3Fe)2,18.3641,21.0153,2.6512
AsIr2Br,27.978,29.8441,1.8661
CsRbCdCl,11.703,12.0536,0.3506
YReSb3,39.1898,33.45,-5.7399
CuTe,13.4419,3.6439,-9.798
Cr2Co2Tc,16.6747,16.7115,0.0368
Tm6GaFe2,18.7332,19.9291,1.1959
NaPuBr3,19.277,20.6162,1.3393
Tb6InFe2,15.631,17.5695,1.9385
In2Ni2Sb,23.3343,21.293,-2.0413
Ge2BiSb,25.7857,25.5765,-0.2092
FeAgSb,38.9644,32.6422,-6.3222
CoClF2,2.6809,3.3486,0.6677
LaSmFe4,12.848,12.2093,-0.6387
ZrTlAu,65.5844,59.7629,-5.8215
Sm2Ag,26.9681,27.5207,0.5526
Sm6InFe2,14.6442,16.846,2.2018
Ca2WBr,15.5328,16.9066,1.3738
LiAsW,17.7148,19.0501,1.3353
Co3AgAu,21.9064,20.6862,-1.2202
CoAg2Au,30.418,27.7048,-2.7132
VRuSe3,58.5346,46.6608,-11.8738
CdSb2As,30.0151,25.7585,-4.2566
DyYHoPu,35.5849,38.7683,3.1833
Na2GeBiAu,32.5775,31.0719,-1.5056
Ti3ZnPb,15.515,17.8147,2.2997
Sm7Ge5Au,20.121,21.9298,1.8088
Co2AgAu,20.1371,21.3464,1.2093
Sm2RhAu,35.842,34.8954,-0.9466
Y4AsPS2,30.4052,27.5456,-2.8596
Pr3Pb,9.2077,11.4918,2.2842
YB,0.0,59.8423,59.8423
La3Pb2,46.4834,37.9664,-8.517
YB,51.9185,59.8423,7.9239
Sm4InAu2,30.207,32.8134,2.6064
Sm2Al4GaAu3,20.5375,22.1871,1.6496
Mn3AlBi,71.8531,60.48,-11.373
CeY2Pu,31.3106,33.595,2.2844
Sm3InAu2,30.8906,33.3686,2.4781
Sn2GeIr2,21.485,24.9897,3.5047
CdRuC2,36.1966,28.9524,-7.2443
Zn2CrSb,18.9839,15.3579,-3.626
AgRuAu3,39.3018,38.7043,-0.5975
AgRuAu2,36.2847,36.5579,0.2732
AcZn2PdPt2,45.7451,36.8563,-8.8888
Sr(DyS2)3,35.8057,28.5383,-7.2674
NaAlIn2Te,22.3237,20.9441,-1.3795
Tl4CdPt,52.4474,48.1963,-4.2511
Ac3CuB2Pt9,69.2078,50.0325,-19.1754
Co2SiAg,14.7271,13.9554,-0.7717
TlAgRu2,30.1785,29.8615,-0.317
LiZrAs,35.8676,31.4665,-4.4011
KRePt,42.3539,35.6174,-6.7365
CuPt2W,55.9072,43.9276,-11.9796
ScUSn,34.4923,33.4783,-1.014
Tl2SnRh2,39.4217,34.8215,-4.6003
Sm4Ga12Fe,12.8544,13.1888,0.3344
CsLi2InAu,19.2925,19.0303,-0.2621
ErTmGaRh,28.6149,27.2774,-1.3375
BaLiAu,18.5131,18.7082,0.1951
AgRu2F,14.2016,14.6846,0.483
SiAgTe2,32.9565,28.3631,-4.5934
Sm2Al2Pt5Au,48.3352,35.8015,-12.5338
Li2AlRh,15.9622,12.4521,-3.5101
LiCeGd,18.3972,20.9208,2.5235
NaCeN,10.3126,13.2258,2.9132
GePBr2,6.6613,8.441,1.7797
Sm(ZnAu3)2,32.7858,34.5586,1.7728
U4FeRh12,50.3194,40.1732,-10.1463
LiTiIn,10.0311,10.4991,0.468
Ba(FeAs3)4,25.4978,21.6756,-3.8222
Tl2CdTe,38.3522,40.8768,2.5246
Li6MnBr8,26.5678,23.1805,-3.3873
AlRu2Rh,31.8934,28.7648,-3.1285
Cs2UTa2O7,26.193,20.3612,-5.8318
ZrMoRu,46.1464,40.6584,-5.4879
ReIrSe,44.724,45.338,0.614
SnBiP,26.439,28.1076,1.6686
Y2P,28.0518,23.4555,-4.5963
Sm2GaAu6,37.4204,38.98,1.5596
Ce2PrGd,18.8155,22.3285,3.513
TaCd2Co,41.8807,34.0504,-7.8303
La6ZnFe2,30.847,19.3906,-11.4564
LaInNi2,15.439,15.1098,-0.3292
Co2AgOs2,18.4727,22.7993,4.3265
Mg2InSb2,19.8443,17.415,-2.4293
Er2TiGa2Rh5,24.9638,20.678,-4.2858
Pm2ErTmSe5,37.7101,32.9217,-4.7883
ScAsRhS2,45.728,35.0245,-10.7035
Er6ZnFe2,16.0221,18.5281,2.5059
CaY2PPb,32.0795,26.6439,-5.4356
ReTc2Te,67.4346,62.2795,-5.1551
Mo2RuRh,26.5988,26.1334,-0.4654
Tm4Ga12Ag,14.5241,15.1259,0.6019
ZnSn2Bi,26.1118,25.5159,-0.5958
Sm(GaAu2)4,33.5247,34.8289,1.3042
LaU4In15,31.0974,31.4665,0.3691
SbRh2Cl,36.8933,27.578,-9.3152
SiNiAg2,20.9001,17.1721,-3.728
CuGe2Pb,19.9044,21.8006,1.8963
Ag3TeAu3,38.0671,35.3607,-2.7064
DyY2(HoRh2)3,35.3253,28.9435,-6.3819
TaAg2Rh,37.4171,34.1362,-3.2809
Sc2AsRuN,38.0512,30.9476,-7.1036
LiHfCo2,39.7066,30.9964,-8.7102
SbPAu,32.2302,30.1822,-2.0479
Ho4ErSn2,26.6897,28.3984,1.7087
Zn2GaFe6,7.3921,6.1679,-1.2242
Pm8Er3Sc2,23.9434,25.0554,1.1121
AgTeAu2,42.0427,40.6851,-1.3576
Ag2TeAu,38.1433,35.2179,-2.9255
TlGa3Re,24.9101,25.5774,0.6674
TlIrBr2,29.3677,31.4536,2.0858
SnTeBr2,21.3902,22.2445,0.8543
ErTmTlAu,38.9272,41.276,2.3488
In2Ga2Sb,17.2648,16.5498,-0.715
Na2AlCd,17.9531,15.9396,-2.0135
Hf6Cd2Fe,100.0424,73.6737,-26.3687
ZrSb2Mo,50.8695,41.8338,-9.0357
CsBaLi2In,12.3516,11.4124,-0.9393
CsScMnBe2,30.8623,24.4391,-6.4232
RbZr2Re,54.6245,45.5786,-9.046
Cs2CoTcBr6,23.3105,21.206,-2.1045
Na2SrCaI6,19.8871,18.6711,-1.216
Fe(Co3Pt)2,31.8855,23.2254,-8.6601
Y2GaP,17.6702,15.4631,-2.2072
ZrTaMo,50.606,48.3326,-2.2733
TbNdRhAu,36.1682,35.4311,-0.7371
Sr2YAl2,18.1148,16.0304,-2.0844
TbPmBiAu,37.6613,40.6966,3.0353
AsOs3Ru,34.2024,34.5322,0.3298
CuAsBr2,13.2153,12.9403,-0.275
Nb2SbAu,93.8209,78.8466,-14.9743
AsCI2,28.1507,23.704,-4.4467
Si3P2Pd,10.6206,9.3025,-1.3181
Y2CrGa,26.9579,23.5488,-3.4091
SrTcN3,0.0,14.3314,14.3314
TlIrBr,35.911,37.383,1.4721
Co3BiRu,19.7952,21.3164,1.5212
TaSeI2N,28.4909,26.1164,-2.3745
InBiP3,18.0397,18.8194,0.7797
NaCaTl2Pb,33.9865,34.5895,0.603
TiAlCu2,2.977,4.535,1.558
AcTlTePd,43.4004,44.7818,1.3814
TaSeIO2,35.1917,29.8895,-5.3023
Ti2Al4Cu,6.2755,6.4404,0.1648
CsCuTe,13.8118,15.8007,1.989
CuNiMo,32.6754,28.5733,-4.1021
VBRu3,37.5786,32.8005,-4.778
CaIn2Si,19.9384,17.4693,-2.4691
GdScMnCu,50.8842,43.2733,-7.611
TbCe2(AgSn)2,25.4372,25.6182,0.181
BaLiLuIn,15.344,16.3944,1.0504
NiAgOs2,30.9303,32.5538,1.6235
SrAc(GaPt)2,44.7335,36.2545,-8.479
Rb2ReMo,20.7611,17.4777,-3.2834
SrAgGe,7.5453,9.0095,1.4642
BaZrSb2,46.6796,38.0697,-8.6099
Y2GaSn3,25.5851,20.2123,-5.3728
Sb2AsRh,32.173,26.0576,-6.1154
CoCuBr,29.6113,23.7259,-5.8854
AlTl2Te,36.7734,36.89,0.1166
Rb2NdPaTe4,31.8956,31.6174,-0.2782
TbTl(InI3)2,24.6442,25.86,1.2158
AlTl2Te,36.8077,36.89,0.0823
Al(H2Pd)6,5.841,6.5325,0.6914
GdPt,24.2699,36.5511,12.2811
Ca2InSi,15.9566,14.4748,-1.4818
Co2CuBr,29.6446,22.759,-6.8855
Pm4Ga12Ge,11.8249,12.9222,1.0973
TlIr3Br,41.0502,42.095,1.0447
CuPCl3,8.515,7.1267,-1.3883
KZnFe2,7.529,6.5585,-0.9705
CaTaSe2Br,47.6335,40.0939,-7.5396
AsPCl,17.5347,14.9595,-2.5752
Cs2TiAgO4,6.3823,8.6655,2.2832
Sm4Ga12Ge,11.8844,12.9295,1.0451
Cs4AcTa3O12,22.9096,18.0564,-4.8532
CuTePt,46.2492,37.153,-9.0962
TcIrPd,26.834,30.8141,3.9802
PbI,30.4035,32.4349,2.0314
YNi,76.5798,68.9671,-7.6127
HPb2ClO,21.4133,22.837,1.4238
P2PtI,27.6446,21.7859,-5.8587
Al2GeP,30.9808,25.4664,-5.5143
Sr3Al9Ag2,9.297,9.2697,-0.0273
Y2Tm2Sc,14.561,18.485,3.924
Hf2ZrS,110.3771,81.5318,-28.8452
K2TlCuBr6,12.597,12.8105,0.2135
AcSm(SiPt)2,48.611,37.8855,-10.7255
Tl2CoAu,40.2884,40.5736,0.2852
CaY2Cu,27.799,22.6347,-5.1643
LaTh2Al9,17.2018,17.615,0.4132
KZr2Ag,60.5922,48.4098,-12.1824
Sm2Y2InGa4,15.2055,15.6425,0.437
PmPb,33.4959,38.9686,5.4727
LiSm2Re,22.7658,26.1638,3.3981
NbSb2Se,70.3359,56.4441,-13.8918
Cr2GeBr2,31.7518,29.9806,-1.7712
TaPSeN2,31.8044,26.7629,-5.0416
NaTlCdRh2,39.4244,32.5659,-6.8586
Li2InSe,17.9343,15.4171,-2.5172
ErScInRh,26.5,24.5528,-1.9471
Sr3PmSn3,14.1674,16.8167,2.6493
Tl3FeTe,39.8816,39.459,-0.4226
MnBeTc2,71.8162,63.0164,-8.7998