Formula,E_hull_DFT (eV/atom),E_hull_ML (eV/atom),Delta (ML - DFT)
YTlZn2,21.88,21.5621,-0.318
NdH5Pt,16.2579,13.4279,-2.83
ScTi5Sn3,14.9804,11.0861,-3.8943
CePuTh4,60.5085,63.4168,2.9083
SrBeSn,17.3468,14.6708,-2.676
Sr2NbSe2,53.2937,43.0085,-10.2851
Zr2FeOs,60.2926,52.7653,-7.5274
Hf2HgRh,77.0823,55.0732,-22.0091
ZrOs,0.0,9.8418,9.8418
ScMoIr4,39.7567,40.1428,0.3861
La(H2Pt)4,31.5835,22.9377,-8.6458
FeCo2Os,28.4769,25.4471,-3.0298
BaNaMg2Sc,8.9591,7.428,-1.531
ZnIr2W,37.343,37.6293,0.2863
Zn4Cd3Au2,20.2358,21.0932,0.8573
ZrPb4Se,59.8148,55.9611,-3.8537
PSe2Cl,24.0792,19.5085,-4.5707
ScRe2,46.9118,46.0521,-0.8596
TcPPb4,52.2056,49.7156,-2.4901
RbNbAg2,49.4974,39.2657,-10.2317
CeHfAu4,59.0674,53.7366,-5.3307
Cs3(ZnAg2)2,23.7444,21.028,-2.7164
Ca2ScRe,36.1775,29.4372,-6.7402
Li2AlIr,14.5874,15.0995,0.5121
K2AsRu,15.3491,13.8224,-1.5267
CeNdTm4,28.7445,31.2543,2.5098
HoSc5Ga3,2.8084,5.4368,2.6284
Hf4Zr2In3,92.2521,70.3976,-21.8545
Y2ZnCrTe,35.3621,29.1023,-6.2598
NiBPt,25.5418,21.4939,-4.0479
Sc5PaIn3,12.4693,13.4658,0.9965
CsMnPPt2,62.6364,47.6758,-14.9606
TaPt,63.6184,53.323,-10.2954
Sr(HgSb)3,18.9157,16.4342,-2.4815
Mn2AgC,66.0784,50.9292,-15.1493
B2MoIr2,14.6292,17.9838,3.3546
ZnB3Mo,10.6549,9.5716,-1.0833
Nd2Br3,11.2659,13.3847,2.1187
U2Co2H6Ir,17.5365,19.4398,1.9033
K2YRu,18.8649,14.6119,-4.253
Sr3IrOs,29.6915,27.2478,-2.4437
ZnCo3N,49.3655,40.3525,-9.0131
Rb3HfSc3Se8,35.1197,27.3147,-7.8051
BaSi2Te,17.8902,14.5229,-3.3673
CdInAg3,24.1129,21.276,-2.8369
Y2ZrZn,35.4174,32.323,-3.0944
CdTe4P,32.6129,30.6587,-1.9542
Y2ThZn,27.1836,28.2651,1.0815
MnTlCo,53.7414,47.6379,-6.1035
Tl5Re,49.6124,51.4004,1.7879
Ca4MgNi,7.5796,6.757,-0.8225
Mg3SnW,14.7538,15.6946,0.9408
Hf2ReCl,75.528,57.3645,-18.1635
Pm3HfAg3Se8,45.3437,36.0829,-9.2608
Rb2PmPr,6.8088,7.2095,0.4008
CrCd2Ge,11.0742,12.9021,1.8279
YAsAu4,35.1578,37.1689,2.0111
Ru5W,39.9097,32.4591,-7.4506
TaPPt,45.3895,37.5157,-7.8737
Pm3CoSn3Hg2,15.4325,16.9093,1.4768
Rb3NbAg,36.9081,28.4422,-8.4659
LaTmAg3,31.1155,26.7992,-4.3163
Ce6HOs5,29.7021,31.5295,1.8274
YZnRe2,36.9376,32.9739,-3.9638
PmSmAg3,24.6609,23.3882,-1.2727
NdTmAg3,25.7754,24.5809,-1.1946
CrTeMo4,20.7668,20.9357,0.1689
Ta2MnTl,56.6885,54.3994,-2.2891
PmTmAg3,25.8058,24.5965,-1.2093
Ta2TcI,48.1343,46.6942,-1.4401
Nd2InNi2,10.6787,13.6608,2.9821
Ta2MnTl,56.6642,54.3994,-2.2648
SbAuSe3,43.6928,37.4568,-6.2361
CaLa2SmSe4,49.3087,39.0803,-10.2285
ThCd3Ag,28.2145,28.7483,0.5337
Cd3AgPb,26.4927,26.5395,0.0468
TbGa2BO6,8.9821,9.0912,0.1091
CrIrOs4,38.1014,40.0221,1.9206
U4Ga16Pd3,25.2303,23.3807,-1.8497
YZnCuRu,23.9555,21.1908,-2.7647
LaPm(PuTe2)2,47.3315,45.1688,-2.1627
CdAgPt3,59.8532,44.8208,-15.0324
Pr(HRh)3,14.3523,9.0408,-5.3115
Ce3(PrTe2)4,24.7346,24.6301,-0.1045
SmYZnPt,35.2667,29.643,-5.6237
LaCo5Si3,6.685,6.2124,-0.4726
CaAlMo4,21.8066,18.0254,-3.7813
Ho3AgAu,27.807,29.1904,1.3834
AgAuI3,27.2775,27.1228,-0.1547
AlSb2,27.325,24.1594,-3.1657
Li2LaY,13.5382,13.2784,-0.2598
CrPRh2,51.061,42.2512,-8.8099
PRu4Au,20.0801,22.2319,2.1518
Ca4YSi,18.7229,16.8501,-1.8727
Sm7(TeS)4,30.7305,27.622,-3.1086
La4P3H,25.9379,20.3437,-5.5942
CsSr3C,27.3236,22.2031,-5.1206
Mn2H3Pt,42.2139,32.8469,-9.367
CsSrC3,47.0507,34.1071,-12.9435
Er4Co3Ru,18.7497,21.2243,2.4746
In3AgSn,19.4406,19.2312,-0.2094
NaBeH,5.6448,5.1526,-0.4922
Tm3HfAg3Se8,46.5144,37.4435,-9.0709
AlSb4Pt,45.9958,36.7818,-9.2141
PmDyCoHg,14.3162,17.0788,2.7626
LiW3I,30.4319,32.1004,1.6685
Zr2CdI,59.8471,52.5887,-7.2584
Sc2InFe,24.0995,23.7612,-0.3383
TlSiRh4,44.0035,33.638,-10.3655
RhI2BrN,24.0868,20.2261,-3.8607
NaMnCr,40.394,37.7789,-2.6151
Ba6InH2,3.1277,4.0767,0.9491
BaCa2Sc,7.4885,5.9236,-1.565
La2Sm3PuTe6,40.5186,37.6864,-2.8322
BeRhC2,43.9354,32.3756,-11.5598
Be2RhC,28.2286,22.4963,-5.7323
YMn2Br,56.3868,46.8251,-9.5617
Li2Co3H8,1.9982,2.5412,0.543
Fe2BMo,14.1491,11.8629,-2.2861
SrLaBe3,18.1802,13.3548,-4.8254
ErH6Pt,14.6489,12.8062,-1.8427
MnZnTe,50.1393,42.8187,-7.3206
LiCaScI6,13.2859,13.3611,0.0751
Y2MnBr,34.667,31.1858,-3.4812
Pr2H12Ru3Pb,11.2042,11.5038,0.2996
CsLa(PPt2)2,54.4221,40.4738,-13.9483
In3Ge2,12.4461,14.2709,1.8248
SrSe3Br,35.7418,28.3819,-7.3599
Cd3RhI,27.2745,23.9684,-3.3062
YbZn2,11.3536,14.5193,3.1656
NaBPCl2,10.0602,8.2924,-1.7678
TbNd4Tm2Mg,23.6808,25.5009,1.8201
PrThCu10,10.7822,12.0058,1.2236
NiOsRu,0.0,5.9496,5.9496
Sm2Zr5Bi3H2,58.2794,53.0409,-5.2385
BeSbW2,33.821,34.0705,0.2495
BeSbW2,33.9074,34.0705,0.1632
La4CoTc,52.0537,39.7479,-12.3059
Y(GaS2)3,22.6849,15.0312,-7.6537
BeSbW2,34.0293,34.0705,0.0413
Co2SiRh,18.8627,15.7016,-3.1612
NiPI2O,31.1126,25.1947,-5.9178
TaNiOs,18.564,26.774,8.21
CeDyTlRh,37.672,36.4605,-1.2115
NaTlInPb,36.8822,36.6599,-0.2223
InBrCl4,4.6901,5.7279,1.0378
Ti2Ni5Rh,14.9368,13.2456,-1.6912
PrHo2Ni,21.8334,22.2824,0.449
Mo2WCSe,38.8532,33.2253,-5.6279
Mn(H2Pd)3,10.893,9.6241,-1.2689
BeBiSb2Te,38.6632,34.9096,-3.7536
P2Pt2Pb,41.7736,34.0927,-7.6809
Pr2Ho2Rh15,40.8606,29.5697,-11.2909
YMnSe2Br,43.8291,35.8535,-7.9756
BaMgCr,12.0576,9.9517,-2.1059
PRuPb2,31.8398,33.2051,1.3653
B12W,3.7829,5.6063,1.8234
ThSi3Ir5,27.4849,29.4482,1.9633
SmPaCu10,13.2431,14.6621,1.419
CuRuW2,26.6031,29.4201,2.817
PaMn5Si3,59.0172,47.6845,-11.3327
V2GaP,68.8503,53.9937,-14.8567
YMnIr2Br,43.4908,40.564,-2.9268
KLaV3,91.8814,69.1786,-22.7028
PW2Cl,79.1623,69.1005,-10.0618
Nb2CdRu,72.87,62.5122,-10.3578
AlTlCl4,11.8847,12.7627,0.8781
Cs2Na2IrO4,10.0533,11.3113,1.258
PtPb2,60.0551,55.8957,-4.1594
Ti(TcH4)2,17.4583,14.5443,-2.914
Na6V2P(CO4)4,20.3894,17.7698,-2.6196
CaTc4Sb,71.4481,58.766,-12.6821
CrPtAu,48.6667,40.6622,-8.0045
Ta(MoPt)2,40.0706,35.8449,-4.2257
CrPtAu2,48.2968,43.313,-4.9837
ErAsBrO4,0.2362,2.1484,1.9122
TmHgPdPb,24.7542,27.0686,2.3144
Li2La2YSi2,32.3814,26.6263,-5.7551
Rb3(FeH3)2,0.6663,0.94,0.2737
RePtAu2,51.5558,49.4947,-2.061
In4OsCl,21.6774,22.8352,1.1578
TeBrO2,2.1899,3.5233,1.3334
K(Be2C)2,20.9919,16.6651,-4.3268
Cu3SnGe3,19.3049,17.6768,-1.6281
RbFe2Cu,17.5479,13.7065,-3.8415
SbBrO2,23.3476,22.1853,-1.1623
LiTbYIn,16.3661,17.4058,1.0397
Y2BeSi4Ni3,43.4201,36.3024,-7.1177
CsSbPHPt,29.5045,23.5286,-5.9759
Co2Br,11.1352,11.7471,0.6119
Ga3PbI,20.4818,21.1913,0.7095
Bi2As2Br,24.5018,25.9603,1.4585
BaZr4Ni,69.4665,57.613,-11.8535
SrCaNb3,92.0642,72.2688,-19.7954
TaZn2I,19.8395,20.9336,1.0941
Bi3AsBr,37.5395,38.0182,0.4787
TlRe3,43.2582,49.0111,5.7529
CaYCuNi,47.0447,40.6883,-6.3564
BaNaNb2Ge,65.2823,52.0301,-13.2522
ZrCu3,24.4982,23.5079,-0.9903
TlFeOs2,43.691,40.6586,-3.0324
Dy2RhPb,38.5353,37.5575,-0.9778
Tl4CoRe,43.3353,44.0932,0.7579
AlReCl4,11.2766,12.2966,1.02
H8Ir5Pt,22.2525,21.6908,-0.5617
SiRhCl4,14.6581,11.4735,-3.1845
TbPrPd2,13.6381,16.5267,2.8886
UH11Pd5,9.31,10.0105,0.7005
UH11Pd5,9.3163,10.0105,0.6942
UH11Pd5,9.2864,10.0105,0.724
YTiBr2,22.5355,17.1798,-5.3557
CrNiTe2,36.1212,33.0312,-3.0899
Fe2CoCu,26.7808,21.7102,-5.0706
Sb3OsC,48.7656,40.3354,-8.4301
TlFe4Os,22.0374,20.7175,-1.3199
CaTe4Ru,32.2014,30.7412,-1.4603
NiOsRu2,24.0512,25.8689,1.8178
MnTeIr4,53.0373,51.2229,-1.8144
V3FeNi2(PO4)6,25.727,20.9246,-4.8024
Ta3NiAs,33.7455,32.9099,-0.8356
Sr4CaMg,11.6819,11.3097,-0.3722
RbP,5.8295,1.5284,-4.3011
Na3Sc2(PO4)3,26.0805,21.802,-4.2785
Ce2Np(TlTe2)3,42.9027,42.9203,0.0176
SrRu3Au,24.4024,25.3878,0.9854
Tc3AsRu,64.6436,52.6347,-12.0089
SbPt2Pb,69.0316,55.1913,-13.8403
Rb(CuP)2,13.5257,10.0694,-3.4563
NaSbPb3,45.8179,43.7323,-2.0856
Ca2Ti2As2H,13.1156,11.0083,-2.1073
PuNiP2,16.5607,19.1187,2.558
RbCuC2,32.7043,22.2357,-10.4686
NaSbPb2,43.7767,41.7835,-1.9932
CaAl3Ir,2.3274,2.4952,0.1678
Sb2Pt2Pb,59.1913,47.8041,-11.3872
Sb(TeP)2,23.935,22.0132,-1.9219
HfPI3,45.6622,35.1642,-10.498
CaCoRh2,30.7345,23.2573,-7.4772
ZrCrH6,13.414,11.9648,-1.4492
V2ZnGa,68.2673,54.2272,-14.04
BaCdCl4,4.3177,5.6054,1.2877
CrNiTe2,35.7221,33.0312,-2.6908
BaSn4Pb,22.3379,23.4995,1.1616
Pm3H2Br3,8.4767,11.4152,2.9385
IrSeBr,29.2585,27.775,-1.4836
Ca3IrW,26.988,23.5615,-3.4266
BeFeSbC2,44.7504,31.8597,-12.8907
Na2V16Mo2O45,34.3171,26.7387,-7.5784
Zn2FeOs,23.6991,20.3008,-3.3983
Te2Pt,58.4636,48.0693,-10.3942
TePt3,72.4033,54.3416,-18.0618
Ba4SrSc,3.5247,4.4324,0.9078
CsSbPHPt,33.7971,23.5286,-10.2684
SbTeP2,24.1234,22.0915,-2.0319
Y2IrI,17.1755,21.8127,4.6372
RbPt2N,48.1501,35.6402,-12.5099
CoTcSb4,48.4505,39.8506,-8.5998
Rb2CuC,19.2141,13.6675,-5.5466
Rb3CuC,15.9695,11.0251,-4.9444
NaLaSc,23.3372,18.9025,-4.4347
NaSc3Nb,37.6004,31.5701,-6.0303
Er4Co3Ni,26.761,25.8128,-0.9482
Na2LaSc2,22.6412,19.2225,-3.4186
KRb2Ge,2.1006,1.3284,-0.7722
DyMg(ZnH4)2,4.8308,5.3962,0.5654
CeNiN2,15.8486,15.5083,-0.3403
Mg4ZrSi,21.2345,18.6683,-2.5663
YTiNiRh,56.6413,48.7659,-7.8754
PuAl3Ga,17.6356,19.4875,1.852
Gd2InSb,30.1194,30.5648,0.4454
LiSc2Tc,63.9684,53.6699,-10.2985
NdScPa,26.0174,30.5628,4.5454
Li2ScTc,62.4168,51.5552,-10.8615
Tl2H6Ru2Au,16.6873,18.212,1.5248
ScWAu2,29.2056,33.2147,4.0091
Pm2NdSmHo5,22.6123,24.9508,2.3385
LiScTc2,85.5635,70.7401,-14.8234
BrCl5,5.5565,5.6053,0.0488
NdAl3Hg,3.4229,6.0188,2.5959
CaY2AgSe4,41.0507,33.3844,-7.6663
SbTe2P,33.4674,31.5021,-1.9654
Pm4HgPd,5.3777,8.6133,3.2356
Li3In2,7.4479,6.8729,-0.5749
SrAl3Ge,14.3049,12.5636,-1.7413
SmY2Er7,26.5402,27.9345,1.3943
NbZnI2,49.3036,41.7718,-7.5318
Sr4CaY3Te8,28.1353,25.6088,-2.5265
EuAlAg,20.6787,19.8711,-0.8076
Tb5HN4,12.2273,15.5066,3.2793
Zn2PtPb,39.3765,33.9971,-5.3795
ZnPtPb2,50.4327,45.075,-5.3577
PrNd2PuTe4,34.2741,34.3011,0.027
RbLiYS2,21.6531,15.833,-5.8201
CdCoCl4,6.3004,7.9655,1.6651
K4Ag3Br10,14.2337,12.7411,-1.4925
YAlBr6,16.9953,16.2262,-0.7691
MnAl3Fe,6.2348,6.3574,0.1226
Cs4Tl3I10,27.2763,27.4787,0.2023
SbICl2,19.003,17.8713,-1.1316
Ni2GeSe3,30.4925,23.4717,-7.0209
FeTc3Ni,76.0371,60.3806,-15.6565
Fe2CoCu,32.2685,21.7102,-10.5583
PtSe,36.6287,23.4806,-13.1481
CuSiSe4,37.2858,29.3006,-7.9852
Ce2EuBi,32.8332,34.5179,1.6847
CsBa2Si,9.8826,9.5312,-0.3514
LaNdI6,25.3877,24.9494,-0.4383
PPtSe2,47.41,36.8234,-10.5866
CaPrLuSc,14.0811,13.2492,-0.8319
RbPtBr2,29.949,23.1636,-6.7854
La2YSnC,47.8014,36.2149,-11.5864
RbPt2C,55.2417,38.2421,-16.9996
LaSc2As,24.4857,19.9631,-4.5226
YZrTiGe2,42.2264,34.3793,-7.8471
CeEuBi2,40.4497,42.6153,2.1656
Tm2MgBe3Pt4,43.8826,33.283,-10.5996
AlTlSn2,23.9644,25.4712,1.5068
CaNbTe2,57.7743,50.0822,-7.6921
YRuS2Cl,57.4815,49.7107,-7.7709
Ba(AlSn)3,11.7571,11.6169,-0.1403
LiInCuGe,10.2428,10.859,0.6162
LiInAs3,11.7193,11.0707,-0.6486
IrSeBr,19.5602,27.775,8.2147
SrCo2As,17.7125,15.3208,-2.3916
KNa2Sr,18.7198,16.4594,-2.2604
IrSe2Br,37.6505,35.0741,-2.5763
PuSnPN,30.6205,32.5824,1.9618
Li2In2As,9.0768,8.8237,-0.2532
Mn3Nb2Ru,89.7476,73.1451,-16.6025
YSeI3,26.3675,24.7397,-1.6278
RbLiIn2Ge,13.5484,12.4918,-1.0565
Ca4TaCo,25.897,20.0843,-5.8127
NaOsPb2,39.4838,40.636,1.1522
Ru3SeCl,21.4861,20.6005,-0.8856
K2Na2Nd4Nb2O13,10.0596,8.9127,-1.1469
NaPaInO5,9.0279,12.7266,3.6987
Pr3ThPb5,29.587,31.7625,2.1754
Li2InGeB,8.9731,8.0199,-0.9532
KNaSr,16.7617,15.2459,-1.5158
Cs3PAu,24.6872,25.1874,0.5002
Eu2GaSi2,13.1965,12.7433,-0.4533
Hf5Ga6,69.4669,50.8179,-18.6489
Pr3SmPb5,25.2485,27.8207,2.5722
YSe3I,36.0614,30.1866,-5.8748
Na5WNO4,10.2354,9.7701,-0.4653
Y4RuW,30.4554,24.8471,-5.6083
LaY3(MnSi)4,60.4073,48.3405,-12.0668
Li2InAs,8.565,8.5002,-0.0648
RePPb2,57.3598,52.1613,-5.1985
BaMg2CoSn,10.9487,8.5134,-2.4352
NaSb2Pt,50.6635,40.4016,-10.262
NaP3Br,10.9696,10.167,-0.8026
ScAsRhSe2,44.2904,37.0084,-7.282
AgRhI2,28.637,24.441,-4.1959
CsDyP2Pt5,55.4288,41.6547,-13.7741
TbPr3Pb5,25.4267,27.9667,2.5399
BaMgCl4,3.8349,4.1048,0.2699
Na3Zn5O12,7.8367,3.8676,-3.9691
Pm4CdHg,19.422,21.9329,2.5109
HfAl3Ru,19.9962,17.1502,-2.8461
SrThRu4,24.0288,27.3589,3.3301
Na3ErU2N6,19.3649,20.8948,1.5299
ScRe2,47.9034,46.0521,-1.8513
CaPrSb2,23.3711,19.7408,-3.6303
RbLi2InNi,9.7721,7.5613,-2.2108
ScCo4H7,2.668,3.6352,0.9672
PrZrCu10,13.5172,13.3165,-0.2007
PuZrCu10,19.7861,19.6512,-0.1349
OsSe,45.8557,43.3708,-2.4849
TbZrCu10,15.9182,15.836,-0.0821
NaMoRh2,28.9073,24.7346,-4.1726
Co2TcRh2,33.2143,27.9124,-5.3019
CePm4Sm3N8,11.368,14.1406,2.7726
NaVPO5,1.5937,1.0046,-0.5891
Y3Tl3GeO8,28.8826,26.9608,-1.9219
LiSiSn,15.2779,15.3696,0.0917
Ca(H3Pd)2,8.4008,7.4876,-0.9132
RbLi2InPb,17.9353,16.7747,-1.1606
PaAl3Si,20.7075,21.2193,0.5118
Pb3W,49.7944,51.8348,2.0404
Rb2AcTbO4,9.7969,11.9479,2.151
ZrNbCr,73.8272,61.5898,-12.2374
NaTiCCl2,24.9829,18.1135,-6.8695
PmPrNdTh2,30.2549,34.1293,3.8745
Al3SiTc,27.5592,22.5723,-4.9869
Na3MoI,23.1073,20.4661,-2.6411
Ca(H3Pd)2,8.3949,7.4876,-0.9073
NaMoRh3,39.1808,30.0011,-9.1797
NaNi3Te,18.3697,16.9805,-1.3892
V(PPb)2,42.8361,37.8359,-5.0002
ReOs,17.781,31.7354,13.9543
CsTl2Te,38.9938,39.3874,0.3937
CaMn2Ir,69.6636,55.1177,-14.5459
K2ZrAs,33.4808,29.0674,-4.4134
CaMn2Ir,69.2834,55.1177,-14.1657
ZnCrAg,17.8127,14.2101,-3.6026
SrAl3Ir,1.725,2.8128,1.0878
Li2In2As,8.8308,8.8237,-0.0072
Pr5NdTm3,6.1762,8.211,2.0348
Pm3Pr5Sm,4.1258,6.2084,2.0826
PrTmCu10,7.8012,9.0565,1.2553
Ta5Hg3,23.1892,26.1048,2.9156
Ir3SeBr,40.091,38.8876,-1.2034
NdReBrO4,12.2451,12.1948,-0.0503
CePrGa,12.0609,13.1707,1.1098
Ba2SrTa2,20.0382,18.8423,-1.1959
NaCd2(GeO3)3,0.0,1.0802,1.0802
Tb3Pr5Dy,5.0646,7.289,2.2244
Pr5SmTm3,6.2179,8.3943,2.1764
NaGe3(BO3)4,1.8925,2.5504,0.658
TbEr3N4,12.9868,15.4154,2.4285
Na2Sn(CO2)4,30.1549,23.2277,-6.9272
Na3Pm(SeO3)4,14.1382,12.9512,-1.187
Ac4TbY3Se8,42.6909,38.5026,-4.1884
Co(ReIr)2,25.241,32.1679,6.9269
CaCeSmN3,0.5747,3.8086,3.2339
SrInCu10,8.3872,9.6229,1.2357
SrYCo2Rh,33.5454,27.4428,-6.1027
CsTl(PPt2)2,54.5984,42.2766,-12.3218
CeCdNi,20.2451,20.589,0.3439
CeYCu10,13.0123,12.5789,-0.4334
CaTaOs2,31.4962,35.9705,4.4743
Rb2TaOsI6,21.8601,21.964,0.1038
HoTmFe10,4.855,6.9421,2.0872
TaTl3Os,48.1157,48.9611,0.8453
Th4CdRe,66.018,60.7363,-5.2817
Cu2BMo,30.1216,19.9223,-10.1993
BaInAu10,40.8432,41.8711,1.0279
CsP2Pt4Pb,54.7959,42.5718,-12.2241
PrThFe10,8.7171,9.7272,1.0101
Y4TlGeTe2,25.1332,25.1298,-0.0034
TbSmFe10,4.2901,6.3208,2.0307
Cs2NaTeCl6,12.7975,12.5737,-0.2237
Ge3BMo,17.1061,12.9861,-4.12
K(H4Pt3)2,36.692,26.2987,-10.3933
La(NiH3)4,4.5296,4.4439,-0.0857
Pr2NdN3,8.8625,7.7293,-1.1332
Pm5PrIr3,20.5961,25.2404,4.6443
ZrTaFe10,11.2588,11.894,0.6352
PrSm3Er5,20.1331,22.338,2.2049
Pm5PrHo3,18.6312,20.9416,2.3104
PrSm3Dy5,18.6829,21.231,2.5481
NdFeCo10,13.1655,12.5804,-0.5851
PmFeCo10,13.1679,12.5888,-0.5791
SmTcBrO4,10.3293,9.6552,-0.6741
AlIrPb4,43.7019,44.549,0.8471
Si4PPt,28.5107,20.0236,-8.4871
PmSm3N4,11.4098,13.7253,2.3156
NaIn2I,21.8289,21.3494,-0.4794
Ac4Ge3Au,40.9362,42.7075,1.7714
CdSnPb4,41.7764,42.5119,0.7355
CoBMo2,1.6886,7.3151,5.6264
UInPd,28.7533,33.9265,5.1733
KLaCd10,21.159,20.4122,-0.7468
KBaPd10,15.6741,16.8609,1.1868
ZrAsRuSe2,56.2507,48.8358,-7.4149
BaSr2Ta,24.7269,20.3417,-4.3852
K2ScCdRh,19.7662,16.4416,-3.3246
LaW2Se,44.6245,41.0652,-3.5593
MgMnMoH,26.1881,23.5971,-2.591
Ba2SrTa,21.4102,17.3372,-4.073
PrHo2Ge,14.9455,18.0846,3.1391
GaRe3Pd,33.8925,34.6337,0.7413
Rh7Pb,49.5625,36.9756,-12.5869
BaB2Mo,0.1267,3.9552,3.8284
Tb5S4NO2,20.4718,21.8696,1.3978
BaNaLi10,3.8022,3.2942,-0.508
LaThPt10,83.6203,61.3302,-22.29
BaLi10Ac,7.1296,7.0519,-0.0777
K2NdAgI6,20.6784,20.097,-0.5814
YCo2Pb,41.4258,36.2631,-5.1628
AlZn4Cu,7.5541,8.2788,0.7247
LiPuCu10,11.6672,13.0331,1.3659
BaCd4Ir,20.1147,21.4085,1.2938
LuTaOsRh,39.7994,40.4764,0.677
LiNdNi10,7.1884,9.0219,1.8336
LiHoNi10,11.8483,10.911,-0.9374
TiCoRe2,30.5016,34.8376,4.336
RbNa10Ca,21.1553,17.2925,-3.8628
ZrAl3Ru,11.3063,13.984,2.6777
Na3SrNp2N6,18.6244,19.5535,0.9291
Cs2Mg(HI)2,14.7754,14.7695,-0.006
Pm3AlAg,17.1335,18.2778,1.1443
AcFeH6,7.933,9.5935,1.6606
Ba2MgSnSe,15.702,12.8401,-2.8619
Be2HgTe,10.8437,11.2943,0.4506
Ta3S4,47.2781,39.8821,-7.396
Na3HfTl,54.7084,42.8511,-11.8573
Ta4FeOs,38.2138,38.2024,-0.0113
LiUNi10,10.8629,12.8113,1.9484
TaS,37.712,35.1719,-2.54
Y(CoSb)2,33.3728,27.8921,-5.4807
NiAsBr2,19.8385,16.4555,-3.383
Y2CoPbN,60.1404,55.4545,-4.6859
YCoSb2,46.6057,39.3825,-7.2232
Y2CoNiSb,69.1354,59.1314,-10.004
KNa3(SeO3)4,13.7602,11.3913,-2.3689
PuAlAu3,25.0123,29.6407,4.6284
CaCuPN,15.4329,10.6905,-4.7424
Ca3AlHg,1.0716,2.902,1.8304
SiSO2,16.8742,17.0022,0.128
Ca3AlTl,10.9212,12.771,1.8497
YU3Tl4O12,23.0545,23.9877,0.9331
CaAlGa3,9.6806,7.8908,-1.7897
LaH2ClO2,12.0378,10.5583,-1.4795
Y2AsAu2,20.0511,23.4713,3.4202
Ac3AlCd,39.3765,41.4266,2.0501
Be2HgW,16.3143,15.2339,-1.0805
Be2Pt2Pb,41.2352,34.1439,-7.0913
LiScNi10,5.7622,7.4604,1.6983
SrTe2W,42.8753,36.1584,-6.7169
Cs9Rb6Ag,16.3304,15.5912,-0.7392
YCoSb2,46.7155,39.3825,-7.333
Nb(CuSb2)2,48.2264,40.3115,-7.9149
TaOsPt2,63.8907,54.0442,-9.8465
LiAcZn10,11.6231,12.3599,0.7369
RbNa10Tl,24.9668,21.1226,-3.8441
ScGaC2,27.9021,21.1567,-6.7453
K2NaSr,14.5817,13.5988,-0.983
Cd4InBi,25.2478,25.9699,0.7221
AgH6Ir5,21.1753,21.3219,0.1466
Nd2Sm2H,19.714,21.0338,1.3198
SrCa2SmHg4,6.2527,6.634,0.3813
Nb2CuSb2,69.4783,57.0641,-12.4142
TlTeP2,25.1952,25.2959,0.1007
YTlCo4,27.9264,26.5185,-1.4079
Sr3NbCl,44.0401,36.9164,-7.1237
Zn4IrW2,24.9161,24.6656,-0.2505
MnAlCr3,17.937,16.2016,-1.7354
GePIrN,29.9991,27.9744,-2.0247
TlTe,46.3074,46.6762,0.3689
Sc(FeW)2,26.6436,28.5088,1.8652
TbPrNi2,15.7187,15.6313,-0.0874
Sm(H3Rh)2,13.4515,10.5457,-2.9058
AlCuB2Mo,18.7085,13.5612,-5.1473
Nb3CuSb,97.0099,77.4821,-19.5278
GePIrN,30.1345,27.9744,-2.1601
Cd4BiPb,30.7438,31.5811,0.8373
Nd2ErAu4,37.9396,39.384,1.4444
KFe2Ru,20.9407,15.2418,-5.6988
VAsRu,30.8305,26.1414,-4.6891
SrSc2W,25.1342,20.2869,-4.8473
CaZnTc4,65.3041,53.721,-11.5831
BiBMo2,15.3154,20.1153,4.7999
TlCr4Fe,22.3482,19.5449,-2.8033
NaCoRu,10.7642,13.0603,2.2961
SrV2Cr,72.9529,55.7998,-17.1531
BaBe2HgBr6,3.1241,3.9373,0.8131
MgPaCu10,13.0712,13.2341,0.1629
TiH5Os,6.8162,8.8736,2.0574
ZnIr3W,40.1691,39.4889,-0.6802
LaY2TlCo,42.6054,36.6667,-5.9387
LuPuNi2,29.2855,32.2997,3.0141
AcAlIn3,25.1513,26.6398,1.4885
CsTiSn3,25.2774,21.7418,-3.5356
Y2TlCoPb,42.6418,39.8967,-2.7451
Ca4Pu3UN8,18.2061,20.8919,2.6858
Sn2BMo,31.3848,24.3481,-7.0367
BMoAs3,10.21,11.1779,0.9679
LiHfInSi2,43.5373,32.5397,-10.9976
Nd2AlH6,5.7957,6.354,0.5583
BaLa2YMn,63.2949,49.653,-13.6419
Nd3AlIn,14.8316,17.5194,2.6878
Tm3AlIn,18.3218,21.834,3.5121
Na2SrAg,23.5804,20.0966,-3.4839
Ba(CuSn)2,43.6283,37.49,-6.1383
AlInTe3,18.8961,20.3103,1.4142
La3AlTl,37.0607,30.3974,-6.6632
ZnIrW2,36.0461,36.5231,0.477
Be2HgW,15.843,15.2339,-0.6091
NaAcAu10,46.503,47.012,0.509
AlCoBr4,18.5193,14.7232,-3.7961
CdSbPb2,42.3693,41.6368,-0.7325
YInW2,38.0854,31.9268,-6.1586
Ce4CdSb,27.0334,27.5871,0.5537
NiAsPb,21.1533,19.6555,-1.4978
Tb2CrH8,5.3514,5.9944,0.643
Nd2Y(AlZn)2,20.5694,19.7453,-0.8242
Mn(RhN)2,33.8074,23.6523,-10.1552
NaPdPt4,66.6724,49.4753,-17.1971
PaInOs2,42.5602,46.2608,3.7006
BeV2Ni,66.0168,52.7163,-13.3005
NaTaAgC2,45.6136,35.318,-10.2956
Na2NbCdO4,24.9367,21.1497,-3.787
Ca2Al5Zn2,5.6458,5.605,-0.0408
ZnIr2W,37.3089,37.6293,0.3203
Ce3(Zn2Cd)2,15.7131,16.8197,1.1066
RbBaMg2,2.811,2.4496,-0.3613
Ni(SnC)2,35.4785,25.4237,-10.0548
Nb2CdSbPb,81.5083,67.9467,-13.5615
Tc3Rh,81.7651,66.969,-14.7961
TcRh2,55.0741,46.8308,-8.2434
Ni2Cl,2.4906,5.0616,2.571
Pm3Nd3CoHg2,16.8449,19.1634,2.3185
TcRh2,63.5512,46.8308,-16.7204
NdH5Pt2,25.2041,20.2092,-4.9949
MnCo4Cl,22.4654,20.0348,-2.4306
SbPbW2C,50.6717,45.1784,-5.4933
PIr2Au,41.1925,39.663,-1.5296
Ce4TmTh,32.8087,34.9973,2.1886
TaSiNi,0.0,2.5291,2.5291
ScCu2Ni,21.6431,18.6685,-2.9746
Li2BMo,5.0799,7.4615,2.3816
Ac4Sb2Ir,55.1967,54.5315,-0.6652
RbTiCr2,21.5126,19.6478,-1.8648
PIrAu2,41.9477,40.2157,-1.732
Mn2CdSe,66.7029,54.2862,-12.4166
MnCdSe2,39.2265,31.7113,-7.5151
BMoAu3,32.3304,33.6998,1.3694
HfMnCo10,25.6963,21.751,-3.9453
Ac3(Zn2Pb)2,36.2008,37.33,1.1292
HfSbS2,75.5035,55.8734,-19.63
YInW,37.6498,27.8387,-9.8112
CsTcP2Pt,44.1114,34.6121,-9.4992
Cs(LiP)2,11.3392,9.9257,-1.4135
LiY(ErIn2)2,20.4499,20.7875,0.3376
B2MoRh,14.231,16.3152,2.0842
Cs2LiP2,12.1381,12.0352,-0.1028
GdY2Cd,19.0222,21.4661,2.444
Er7(TeP)4,18.9505,20.4383,1.4878
CeErTh4,53.1275,55.7346,2.6071
CeMnCo10,15.7996,15.5023,-0.2973
La2YPb9,48.8028,47.2392,-1.5635
Mg3(P3Pd10)2,12.934,14.0536,1.1195
PmMnCo10,15.8093,15.5478,-0.2615
CeHoHg4,8.3163,9.5998,1.2835
SrTaMn,61.696,48.9919,-12.7041
ScPaMo,14.8067,22.234,7.4273
Cs2AsPPt,37.2515,30.5685,-6.683
ThMnCo10,19.2094,19.0347,-0.1747
SrCaZr,30.516,25.9282,-4.5879
ScPaMo2,34.561,36.7101,2.1492
EuGdYCd,22.6329,24.798,2.1651