Formula,E_hull_DFT (eV/atom),E_hull_ML (eV/atom),Delta (ML - DFT)
Ca2AcPtO5,36.2032,30.6709,-5.5323
Fe2HgSb,27.4909,21.5608,-5.9301
LiCe(In2Ag)2,21.3193,20.3951,-0.9242
NiRuNO2,25.5239,22.3175,-3.2064
Ba2P4Pd5,11.4048,11.4638,0.059
TlRe2Tc,56.9315,55.8839,-1.0476
TaCd2Os,29.564,32.4448,2.8807
LiHo(InAg2)2,24.5722,21.9015,-2.6707
Na3LiY,18.0876,15.5178,-2.5697
Sc(CrGa)2,14.1857,13.0315,-1.1542
Li8Ge,1.3207,2.6069,1.2862
NaPm2In,23.3846,24.1237,0.7391
YAsW2,27.6732,23.1228,-4.5504
TaTlSe,46.0232,43.843,-2.1803
AsPb2W,40.2733,41.0144,0.7411
TaCd2Pt,41.2891,36.0387,-5.2504
AsPb2W,40.2797,41.0144,0.7347
GeRuPb2,33.1773,35.6116,2.4342
HfMoAs2,37.6225,31.2989,-6.3235
CsK2Rb,11.6235,10.8733,-0.7502
YAs2Pb,21.5532,23.9645,2.4113
Ca2Pm4Sm,19.7635,21.7042,1.9408
GeBiRu2,18.6497,23.2957,4.646
Ge3BiRu,21.5383,22.2086,0.6703
Ca2BeNi2,11.8341,7.1214,-4.7127
BeRh2Au,36.3083,30.6772,-5.6311
Fe2CuSi,25.106,18.8821,-6.2239
Ge2Ru2Pb,20.698,23.0335,2.3354
Li2YP,18.0245,13.4733,-4.5512
TaTl2Se,47.5884,45.8831,-1.7053
Sr3(ZnIn)2,13.2973,14.4234,1.1261
La2Ce2Ru,27.4921,24.2527,-3.2394
Ba3Nb(AgO4)2,13.4802,12.0468,-1.4334
TiCo2HgMo,20.9326,18.6448,-2.2878
Sr2Sn3Hg5,6.4699,7.5925,1.1226
Ba4ZnIn,4.3564,5.797,1.4406
SrCo2Pt,28.6889,23.5967,-5.0922
Ba4TmNb3O12,20.4815,18.6781,-1.8033
Sr3(TlZn)2,22.1447,23.3345,1.1899
Ba4Nb3CdO12,20.4575,17.6084,-2.8491
TaTlCd2,32.3711,33.5784,1.2074
ZnInAu4,33.0093,34.7073,1.698
ScFeIr2,43.6336,43.683,0.0494
Y2ZrP,45.9977,36.3227,-9.675
TaCd2W,29.1868,31.8975,2.7107
TiPdRh2,29.6487,24.24,-5.4087
KCu2Rh,19.3805,16.4476,-2.9329
PrInIr,6.7403,14.6074,7.8671
Tb3(TmZn)2,22.2297,24.8595,2.6297
Zr2MoRu,58.3846,49.1769,-9.2077
Pa2Zn2Tc3,61.0496,56.8628,-4.1868
CaThCuS3,35.3447,29.2087,-6.136
Sr2In3AgPd4,18.3519,19.0076,0.6557
La4CeZn,39.8043,29.4965,-10.3078
TmHfSn,58.1901,49.7172,-8.4729
ScBePb2,30.4959,30.5103,0.0144
ZrSn,39.6643,34.1142,-5.5501
Ba2NbIrO6,17.0144,15.9875,-1.0269
ScBePb2,30.3962,30.5103,0.1141
InNiRu,8.4531,13.1743,4.7212
LaTlSbI2,38.0928,32.6354,-5.4573
Tb2(NdDy2)3,26.6488,29.03,2.3812
Ba3NbAl2O8,13.6621,11.0683,-2.5938
PmTiSb2,29.4401,26.938,-2.5021
Ba2YHf2ScCu2O11,33.6588,27.3479,-6.3109
V2Co5B2Pd,24.1754,21.1776,-2.9978
Li2ReSe,22.3671,21.0077,-1.3594
NaAs2W,22.4223,22.1009,-0.3215
Ba2NbOsO6,16.6687,15.9538,-0.7149
SrCo2Sb,18.8267,17.0476,-1.7791
Hf2PdRu,79.6505,61.7721,-17.8783
HfPa2Pd,74.1284,68.2903,-5.8381
CdCuSnCl2,29.0374,25.36,-3.6774
Mo2OsPb,38.6025,35.2315,-3.371
Ba4Nb3ZnO12,22.4457,18.7683,-3.6774
SmCuSnAu,47.0521,44.5766,-2.4754
Fe2SiOs,24.3284,19.4333,-4.8952
Na2CdCuP2,13.2093,11.9855,-1.2238
FeSiBr,10.5706,8.5073,-2.0633
Ca3RuI,15.849,13.8258,-2.0232
Nd3(Tm3Th)2,35.6635,37.7481,2.0846
Ce2PuSb,41.2993,41.677,0.3777
HfZr2P,85.9378,66.8682,-19.0696
TaHgOs2,30.2411,34.6898,4.4487
Fe2ReSi,25.7759,22.1615,-3.6144
SrYCo2,29.3624,25.5952,-3.7673
Ce2YAg,23.9543,25.1361,1.1817
AcCuPtO6,17.3614,16.2105,-1.1509
Li3Y,3.9306,5.5593,1.6287
TiBiSe2,32.7459,31.808,-0.9379
Tb2Nd2Y2In,22.2807,23.9411,1.6605
Na2Nb2C,73.0822,57.8063,-15.2759
SrLa3Ir,29.509,20.4888,-9.0202
LiCaNd2,13.9099,16.1979,2.2881
Y6GaAs2,11.8958,13.7484,1.8526
YAgB3,48.8158,40.3314,-8.4844
RbGe,9.492,1.4079,-8.0842
YAgGe,15.3548,13.9378,-1.4169
BeTe2Mo,23.6526,21.9618,-1.6908
Ta4Al2H3C2,24.8102,23.906,-0.9042
Cd2TePt,42.5333,34.967,-7.5662
TaBeSeN2,36.3137,31.1015,-5.2123
AlGaTe2,20.503,20.054,-0.449
LiY2Zr,31.8013,28.0535,-3.7478
AcGeSbPt,51.6129,44.1854,-7.4275
Rb2ZnTe,11.27,11.3907,0.1207
RbHfTc2,77.8097,60.5051,-17.3046
LiY2Zr,31.8065,28.0535,-3.753
SiSb2TePb,40.2532,33.9496,-6.3036
TaCo2Os,43.8569,38.7027,-5.1543
Cs(AlGa)2,9.441,10.6762,1.2351
CsAl3Ga,10.0478,10.5676,0.5198
Ba3In5S12,25.3469,17.3902,-7.9567
Cs2AlTe,23.3142,23.2913,-0.023
CsAlTe,19.5413,20.1293,0.588
HfVNO2,54.1848,40.7324,-13.4523
LiYZr2,52.964,43.6172,-9.3469
Tb2ThRu2,29.9349,33.336,3.4011
AlGaTe3,23.7476,23.4356,-0.3119
PuHfZn4,40.8735,35.3802,-5.4932
Sr(Tl2Cd)6,39.4322,39.4398,0.0075
Rb2HfTc,57.0324,44.9015,-12.131
Be2TeMo,19.0268,16.5906,-2.4362
Li2SiAs,16.6032,14.0356,-2.5675
Li2SiAs,16.4974,14.0356,-2.4618
Ca2LaTaTi,21.5002,19.2738,-2.2265
As3AuF,18.222,18.3829,0.1609
Sb2TePbC,51.1897,41.8122,-9.3775
BeTe2Mo,29.1809,21.9618,-7.219
NaCaFeC,33.0163,24.8442,-8.1721
LiYZr2,52.9552,43.6172,-9.3381
Ca(PdN)2,18.0447,15.2768,-2.7679
Tl2AgS2,45.8571,38.578,-7.279
Fe2RuW,24.7247,22.4605,-2.2643
KTh(CuP)2,21.8112,21.744,-0.0672
Cu2NiAs,17.0327,15.0825,-1.9502
ThIn4Au,28.0507,30.1781,2.1275
Rb2NaSe,16.815,13.7676,-3.0474
MgCd2Ni,13.7182,13.5959,-0.1223
Mn2SnCl6,26.2148,22.1484,-4.0665
LiYZr2,53.0242,43.6172,-9.407
Ac2La(RuI)2,43.8819,38.5416,-5.3403
Tb3Dy3Th8,49.4769,51.3201,1.8433
Tb3Dy8Th3,35.6549,37.4156,1.7608
LiYZr2,52.9101,43.6172,-9.2929
K2SbOs,28.4872,26.0244,-2.4628
TmInBr2,17.7231,19.9554,2.2323
AcGa4NiPt2,34.7851,28.7951,-5.99
HOsPt4,66.7698,50.5654,-16.2044
Gd2CuTe,26.1608,27.6407,1.4799
InSnBi2,37.5165,36.6242,-0.8922
Y3ZrC,49.3819,39.5772,-9.8047
Nd6CoHg,19.2092,21.2239,2.0147
CeNi,2.581,8.2229,5.6419
Nd8Ag2Sb,27.4755,26.9895,-0.4861
TlCd2W,32.6494,34.3428,1.6934
NaCa2Sn,11.5885,12.5045,0.916
Ac3Pt2Br,58.0655,51.6991,-6.3664
HfZn4Au,36.7156,30.4749,-6.2407
TaCo2Re,43.4834,38.0821,-5.4013
Cs2CaPt,33.2361,27.9555,-5.2806
Nd5ScSb6,32.5996,28.8056,-3.794
AcThGa2Pt5,65.2439,49.4377,-15.8062
LiRu2Au,20.2388,22.5593,2.3205
LiCaFe,13.1718,11.8215,-1.3503
PmSm2Sb,29.3899,29.0112,-0.3786
Li(YP)2,21.813,15.0744,-6.7386
Ac2CuPt3,60.5091,48.5792,-11.9299
ZrSn2Au,46.4431,42.3335,-4.1096
YInAsBr2,14.0933,13.9488,-0.1445
Ac2Pr2Rh,28.3153,29.1137,0.7985
TaAl2I,19.5933,19.1965,-0.3968
LaNdZn4,17.4677,16.0414,-1.4263
LiYC,31.6381,26.9166,-4.7215
Ba4NpNb3O12,22.5688,20.8068,-1.762
Y3AgPd5,23.3055,20.315,-2.9906
TaCo2W,43.9115,38.0375,-5.874
Li2RuAu,16.2097,18.0158,1.806
Dy2(FeB2)3,4.8651,6.6894,1.8243
Y3Cu4,31.8137,27.2479,-4.5658
CdRu2Pb,26.4711,30.3832,3.9121
TaNb2Se,83.9174,72.1953,-11.7221
TiCrN2O,12.8164,11.9051,-0.9114
CaMgP2,17.2052,15.1326,-2.0726
CaMg2Tl,15.1649,16.5653,1.4004
CdRu2Pb,26.6568,30.3832,3.7264
La4ZnPd,33.6516,23.2916,-10.36
NpTlSe,49.5539,48.8681,-0.6858
Fe2SiW,16.8536,16.8533,-0.0003
ScFeW2,41.6611,42.0055,0.3444
SmY(BiO3)2,21.0298,21.6764,0.6466
TaSiSe2,36.9522,31.7483,-5.2039
TiPdN2O,16.3223,15.3713,-0.951
LiY3O,22.8082,20.8533,-1.9549
PmTmZn4,13.9729,15.9674,1.9945
TlNiPt2,54.4725,42.1252,-12.3473
Ba4Nb3InO12,21.6532,18.6828,-2.9704
Ni2RhCl6,9.1957,8.7947,-0.401
Er6PSe3S2,34.9535,32.3538,-2.5997
Pd2PtCl6,12.8579,11.1159,-1.742
Sm2Sc3Rh2,22.7752,20.604,-2.1712
Cd2AgSb,28.7367,25.0974,-3.6394
TaSiSe2,36.8829,31.7483,-5.1346
Tb4AuC,29.8755,30.3342,0.4587
KGa2Rh,15.2682,12.4338,-2.8343
LiYO,28.8581,25.7285,-3.1296
Li2CrSi,11.6951,10.1337,-1.5614
CeLu2Ga,24.9096,27.1774,2.2677
CaAc2(PtI)2,50.2995,42.825,-7.4745
NdPuZn4,21.0531,22.7294,1.6763
NiW2Cl,24.8606,25.4722,0.6116
ScNbV2Rh,91.9033,71.7667,-20.1366
CeDyIr2,34.0823,37.6157,3.5335
PrZn4Ir,14.1718,13.4606,-0.7112
Ac2LaPt3,73.7177,56.9773,-16.7404
KZnRu2,14.3246,15.641,1.3164
Co2TcAu,39.3055,37.691,-1.6144
ZrFe2Si,30.197,23.7739,-6.4231
RuPb3C,50.0822,46.5246,-3.5575
Ir2RhW2,42.3787,44.8437,2.4649
Tb2Tl2Rh,40.3517,39.7269,-0.6248
LuScTcRh,82.2094,70.7699,-11.4396
LiTe2C,37.5056,31.5805,-5.9251
La2TbErTl2,38.9544,35.0408,-3.9136
Tm2RhPb2,42.6326,42.4541,-0.1786
TlRuPb2,43.6186,45.6725,2.0539
BaCaSN2,12.8061,10.7419,-2.0642
TlRu3C,34.0676,31.7767,-2.2908
Tb2YEr2,20.338,24.7248,4.3868
ScPaFeRh,51.0478,46.6934,-4.3545
Tl2Re,42.6018,47.9717,5.3699
TlRu2Pb,29.727,34.138,4.411
AcNi2Pt3,56.9142,43.6045,-13.3096
ScMo2Pt,40.2705,35.8209,-4.4497
CdGaBi3,38.8089,39.384,0.5751
Rb2CuW2,22.579,17.8056,-4.7733
CdGaBi2,34.3403,35.5305,1.1902
Si2RhF,24.41,19.3545,-5.0555
Mn2RuRh,77.1092,61.3319,-15.7773
MnRuRh2,64.5539,52.7404,-11.8135
BeCdS2N,46.3203,35.4376,-10.8827
NaCo3B,3.8112,5.6736,1.8623
Nd2ThRh2,35.0232,35.3577,0.3345
LiCdS2N,27.6284,21.5159,-6.1125
Cd3Os,25.2962,26.9492,1.653
Zn4PtRh,27.8043,21.5939,-6.2103
Y2ZnInRu,20.2182,16.7388,-3.4794
NaLiIn,16.4581,14.0804,-2.3777
Ba4AgI2Br,10.0109,9.7474,-0.2635
Sr(ZrPd)2,42.7064,37.3398,-5.3667
Ga3SnIr,19.1887,20.1923,1.0036
Zn4AgRh,18.3242,15.6417,-2.6826
Y2Pu2Ni15,29.1593,27.7405,-1.4188
MnCrAu4,49.8839,47.6538,-2.2301
LaZn4Rh,21.5657,17.3614,-4.2043
ScMn2Fe,72.1132,60.3128,-11.8004
Y2Ho2Pb5,38.1961,39.9937,1.7976
TaMoAs2Se,36.6701,35.3369,-1.3333
Pt2Rh2W,62.9018,47.1021,-15.7997
Zn4RuAu,15.6093,17.0128,1.4034
Sm(TmRh)2,36.1815,32.1087,-4.0728
Ac3Pt2Pb,70.2444,62.6501,-7.5943
AcLaPtPb,63.9,54.1362,-9.7637
CsCo3Cl,11.6904,12.004,0.3137
BaPRu,10.5932,11.2459,0.6527
NaSc3Cu,23.1363,19.1857,-3.9506
HoErSn2,24.1963,26.3449,2.1486
Na12Tl5Pb2,34.368,31.4318,-2.9362
NdY6Tm2Sc3,19.0749,17.8593,-1.2157
Y3GeS6,32.0615,23.788,-8.2734
Rb2ThCl6,4.0763,6.593,2.5167
ScBeI2,19.6604,22.0026,2.3422
LaCo2Tc,39.2072,33.8265,-5.3806
KRb2P,9.2174,5.8007,-3.4167
Sb2TePPb,38.9485,33.8427,-5.1058
RbRuRh,48.2772,39.6846,-8.5926
Ac2GdEr,46.9793,49.5142,2.5349
TeAs2W,27.801,26.59,-1.211
LaTcSN2,40.0041,31.035,-8.9692
OsRhBr2,29.7826,26.408,-3.3745
TeAsW2,33.6999,35.8004,2.1006
ZrMo3I,35.154,32.5005,-2.6534
NaY2TcAg,63.6873,53.9877,-9.6996
Te2AsW,34.8769,34.1708,-0.706
BaPRu2,12.6358,14.58,1.9442
BaP3Ru,11.0349,9.6946,-1.3404
OsRh2Br,38.9093,33.2513,-5.658
AgSbAs2,24.206,21.5423,-2.6637
Rb3ZrMo,25.8737,20.4538,-5.4199
Er2CdP,19.4998,22.6559,3.1561
GaGeRu3,15.0366,16.1493,1.1127
RbP,0.0,0.0807,0.0807
BeZn2Pb,23.1077,20.8658,-2.2419
Li2Tl,17.2023,18.2353,1.033
SrLa2ScRh,33.948,24.171,-9.777
NaCuRhS2,33.832,25.0204,-8.8116
KIrBr2,16.1281,18.2093,2.0813
CuReRh2,36.2446,31.0503,-5.1944
Rb2PPdI,15.5109,12.168,-3.3429
CuRe2Rh,34.0864,33.8576,-0.2287
PmEr3Ru4,17.8947,20.3607,2.466
TlBiRu2,30.1312,34.3346,4.2034
RbTb2Cl6,6.8981,7.4308,0.5327
Na3HoBr6,11.9591,12.7427,0.7836
CuRePb2,38.9159,41.1343,2.2184
ReRh2Pb,48.2224,43.2113,-5.0111
LaLu2Sc,31.0402,28.9407,-2.0995
LaYZn2As,20.1779,15.7485,-4.4294
LaYZnRu,26.6244,20.7947,-5.8298
SrAc5Te8,46.4655,46.1126,-0.3529
Na2Pb(IBr)2,27.5667,25.0908,-2.4759
VSbPb2,70.2372,61.4092,-8.828
TbHfZn4,33.2081,27.6302,-5.5779
Li2SiP,15.3599,11.1961,-4.1638
AlSb2Pd,28.2409,24.0237,-4.2172
Co2TcRu,30.4064,30.0367,-0.3697
CaSbTe2,34.451,29.8499,-4.6011
MnTc,86.588,75.6384,-10.9496
PPtBr2,30.4234,23.5864,-6.8369
Ac(PrRh)2,23.8326,24.6005,0.7679
PPtBr2,31.2219,23.5864,-7.6354
Cr4TeBr,24.9114,22.7965,-2.115
KPBr,9.1441,9.898,0.7539
MnCdCu2,33.2154,29.3791,-3.8363
U2SeCl6,22.0407,22.6492,0.6085
Al2Si2Tc,35.9236,30.0052,-5.9184
YHo2TmP4,19.7473,19.215,-0.5323
SmEuAu,33.1101,35.4863,2.3762
Cr2TeBr,31.8267,29.1894,-2.6373
YHoZn4,13.0682,13.7324,0.6643
CrTeBr2,32.0162,29.7972,-2.219
AgGe3N,13.2802,11.9873,-1.2929
ScCdAg4,25.1367,21.4572,-3.6796
SrLa3Os,25.1878,29.6669,4.479
ReRhW2,33.1782,36.1698,2.9916
SrB2F6,0.2404,0.855,0.6146
ScIn2Fe,32.243,30.0049,-2.2381
GeRu3Br,19.3311,18.6073,-0.7238
MnNiRuRh,79.3064,67.2174,-12.089
PtCI2,47.3519,35.9027,-11.4492
LiYP,23.4437,17.3652,-6.0786
YP3,20.0232,15.126,-4.8973
Mn2BSb,55.0908,44.86,-10.2308
Zr2Cd3Hg2,36.2297,30.7769,-5.4529
Ac3Si2Pt,34.5092,32.9991,-1.5101
K2PtI5,24.9898,22.3909,-2.5989
Ac3TePt2,61.9627,56.6914,-5.2713
SbOsPd2,32.0631,31.125,-0.9382
AcNdInPt,49.0448,44.4542,-4.5907
SrWN3,0.0,14.6941,14.6941
Re2RhW2,41.9825,42.9567,0.9742
RbP3Ru,24.5847,21.3954,-3.1893
ReRhW2,41.5818,36.1698,-5.412
Rb3LiRu,25.6385,20.7038,-4.9347
YZr2P,66.7658,53.8193,-12.9465
YZr2P,67.1347,53.8193,-13.3154
BeBSb,10.9974,10.7407,-0.2567
BeNi2Bi,16.9945,19.6043,2.6098
YZrP2,43.6238,33.7658,-9.858
CeZrZn4,25.3825,23.0522,-2.3303
NaGdF4,-0.0,-0.0,0.0
Tb2Y(ZnGa)2,14.9007,16.3113,1.4106
MnPb2Au,63.2275,59.4309,-3.7965
Ca2NbRu2,30.4653,28.1706,-2.2946
SmTmTiAl,16.943,19.3765,2.4335
SrSIN2,21.5758,17.8241,-3.7517
Mn3PbAu,80.3564,68.7675,-11.5889
ZrZn4Au,29.0882,26.5194,-2.5688
CeEuHgPb,25.9137,27.8897,1.976
CdSbW2,35.6443,36.9344,1.2901
Tl2TcCl6,23.5662,23.7798,0.2135
CaW2Se,54.1996,51.0142,-3.1854
Y2ZrP,45.7217,36.3227,-9.3989
BeNi3C,17.2809,16.2883,-0.9926
CaW2Se,54.2892,51.0142,-3.2751
NaBeC,24.22,21.7472,-2.4728
TaSb2OsN,51.3593,43.0632,-8.2961
La2TbNd,38.6633,31.0179,-7.6454
HfZrZn4,45.1761,36.0199,-9.1562
GaNi5As,12.2101,12.1077,-0.1024
NaBeC,24.4491,21.7472,-2.7019
SrAgSb,18.5705,16.7374,-1.8331
Sr3Te12As5,21.3502,18.0657,-3.2845
BeGeC,23.9697,22.0897,-1.88
VB3Sb,37.4965,29.8338,-7.6627
BeGe3C,19.193,17.545,-1.6479
YPC,21.3707,27.4543,6.0836
Cs(KBi)4,29.563,29.3846,-0.1784
LiYP2,23.8916,17.3996,-6.4919
Tl2CdIr,41.4493,42.8609,1.4116
As2C,28.1873,22.484,-5.7033
Na2LiSn2,15.3255,14.9586,-0.3669
Co2TcRu,30.411,30.0367,-0.3743
Co2RePb,22.8467,24.6412,1.7945
Tl2CdIr,41.2651,42.8609,1.5957
Co2TcRu,30.4179,30.0367,-0.3812
NaCoSn3,18.6439,18.5607,-0.0832
ZrRe3,54.6067,53.5269,-1.0798
NbAlN3,29.768,26.0005,-3.7675
CoRe2Pb,29.8972,32.5758,2.6786
Ag3Mo(IBr3)2,18.3889,17.4793,-0.9096
NbWN3,25.9577,24.1091,-1.8487
HoZrZn4,25.8723,23.5753,-2.297
ScIrPdRh,36.9339,29.8068,-7.127
ZnCo2Ru,16.0653,13.4213,-2.644
Ge2IrPb,23.6314,27.4661,3.8347
ZrOs3Pt,65.2985,55.8402,-9.4583
Y2SnPd2,37.7103,32.3377,-5.3726
YSb2Pd7Pb2,31.1375,28.9276,-2.2099
ReRhAu,46.2947,43.7142,-2.5805
Pm2Y(SnPd2)3,34.6438,31.849,-2.7948
Nb4Te17I4,50.331,44.3204,-6.0106
TiBeSN2,31.2194,24.3162,-6.9032
Cs2BeMoBr6,13.6899,13.2858,-0.404
Pr3Y5Er,4.7753,6.2791,1.5038
TiVS2N,49.4476,37.5468,-11.9009
Y3Ho2H9,6.8034,7.193,0.3895
GdScAgRh,28.1767,25.583,-2.5936
KAlAs,25.1185,19.7531,-5.3654
ZrNi2Te,37.9765,33.6822,-4.2943
AgMoBr6,14.1187,14.6827,0.564
ZrAlPb,51.3134,46.3,-5.0134
CoRePb,28.6951,33.0811,4.386
LiTcP3,26.1401,21.2017,-4.9384
ZnCo2Ru,16.0886,13.4213,-2.6673
Y2PaGe3Pt4,49.0862,36.5297,-12.5566
Sr(Ga3Ge)2,9.1635,9.9561,0.7926
InSiPt2,53.2033,37.5065,-15.6968
Zn2HgIr,18.7462,17.0643,-1.682
AcYSn6,30.2775,28.6914,-1.5861
Y2Ho2Mg5,11.6649,13.0094,1.3445
Pr2Y5Th,10.3739,12.7855,2.4117
Y3Ta17O47,12.3266,11.7474,-0.5791
NbTePdRuI,53.1733,46.2584,-6.9149
TlOs2Cl,35.4587,38.281,2.8223
InSi3Ru,19.0734,13.6368,-5.4366
TlOs2Cl,35.7192,38.281,2.5619
MoSBr,21.2856,17.2102,-4.0754
CsMn2MoBr,50.6874,42.9636,-7.7238
BiSbC2,51.4832,41.1751,-10.3081
RbNbV2O8,9.4313,6.2007,-3.2306
RbV2SbO8,9.5662,6.5333,-3.0329
InSiSb,26.8433,22.4305,-4.4128
RbTaV2O8,3.7504,1.7194,-2.031
K2LiAu2,21.5532,22.0834,0.5302
Li2TePb,23.5685,23.526,-0.0425
Ac2LaNdPt4,69.2947,53.2946,-16.0002
CsV2SbO8,11.4215,9.5878,-1.8337
Cr4GaCuS8,35.8425,26.6247,-9.2178
LiTaAg,23.2127,23.395,0.1824
Tm2Zr2In3,45.1325,40.6038,-4.5287
Mn3SiBr,66.1179,52.3621,-13.7558
Ge3IrPb,26.5941,27.3738,0.7797
KTcPd,35.7947,34.7722,-1.0224
Zr2Cd2Rh3,54.0288,42.5982,-11.4306
PuZrZn4,33.2667,31.2271,-2.0396
Sr2Tl2Sn,27.0771,29.1499,2.0728
Sn3RuRh,34.8822,29.9838,-4.8984
ZrZn4Rh,25.984,21.7313,-4.2528
Cs2BiMoBr6,17.9096,18.4948,0.5853
NbTePdRuI,53.1751,46.2584,-6.9167
YHoCrSbO7,14.6525,13.3491,-1.3034
K2ZrSc,32.7679,27.1146,-5.6533
TmZrZn4,26.2602,23.9756,-2.2846
Ac2NdIrPt,50.4562,48.9347,-1.5215
KNi2As,18.8531,16.2298,-2.6232
MoPdRh3,40.9249,29.2922,-11.6327
Ta2SbAu,41.9018,42.6095,0.7077
CaTcIr,49.6539,43.4464,-6.2075
Ba(VCl3)2,29.9125,23.7623,-6.1502
CaPr2Nb,36.4438,30.8945,-5.5493
NbTeAuI,58.8219,53.8802,-4.9417
LiLaBe3,14.2413,9.0527,-5.1886
CrNiPb2Au,42.9584,42.5446,-0.4138
ThGa4Cu2Ir,20.901,21.3774,0.4764
NbTeAuI,63.4616,53.8802,-9.5815
CaThCuSi,27.9881,27.1297,-0.8584
LiLa2Be,27.0175,18.1763,-8.8412
SbPdBr2,29.2409,28.2262,-1.0147
La2TaCd,40.0758,32.7504,-7.3254
Y3(HoEr2)4,26.3893,28.2169,1.8276
YBiP2S,41.9053,37.8175,-4.0878
NaSr(ZnGe)2,11.8705,11.9869,0.1164
Ca2Ga4HgPd3,13.2795,12.7915,-0.488
Tm2Zr2Tl3,58.5846,53.9727,-4.6118
Nb3WN,92.5438,78.1849,-14.3589
Ho4ZnAg,25.1708,26.5735,1.4027
YP2SBr,33.3788,28.9515,-4.4273
Ca3YGa4,9.8377,9.8375,-0.0001
CsMnTe2,48.1414,42.569,-5.5724
Nb3PC,100.097,79.5038,-20.5932
In2FeTc,36.3105,32.2311,-4.0794
Na2HfTi2,51.5048,38.6625,-12.8423
PmScInRh,26.4439,23.3936,-3.0503
Li2TlTe,22.9203,22.9475,0.0272
NaCoOs,18.4809,23.0199,4.5389
MoAsPb3,37.3245,38.5589,1.2344
NaTlPd2I,27.0498,26.653,-0.3968
Th4ZnAg,44.7041,46.6933,1.9893
NiAuI2,25.6342,26.5822,0.948
NaHf2TlFe,80.6365,61.05,-19.5866
AcNdPtPb,57.1822,52.6097,-4.5725
Hf2Zr3Pa2,102.5482,82.9536,-19.5946
AcSmTlPt,56.9004,52.1778,-4.7226
Na(CoOs)2,17.3173,21.9594,4.6421
Na2CoOs2,23.9864,26.8859,2.8994
ZnBiAu4,41.8802,43.246,1.3658
Y3Ga,13.0297,15.2645,2.2348
Na2Ce2I5Br2,20.2768,19.6477,-0.629
CaYPS,36.8378,33.7471,-3.0908
NaSrPt,24.6296,16.6851,-7.9445
TcMo3Pb,41.2212,39.2017,-2.0195
Tc3MoPb,72.0782,63.7416,-8.3366
Tb3YEr6,22.5191,25.7963,3.2772
TcMo2Pb,44.7069,43.583,-1.1239
TcAgMo2,39.1242,37.5085,-1.6158
Tc2AgMo,58.4837,52.0545,-6.4292
HfZr2BiN,78.5042,62.1846,-16.3196
CrAsPb,25.9758,25.3876,-0.5882
ScTa3,72.6975,66.9954,-5.7021
NaNpBi,44.0821,46.7901,2.7079
Th4ZnPd,41.6094,45.0133,3.404
CoMo2As,16.2104,17.1146,0.9042
Zr3(PdRh)2,60.5293,48.4377,-12.0916
NdYAgOs,28.7637,29.5125,0.7488
Li2AuCN,33.2726,29.6709,-3.6017
ZrAlBr2,30.8485,25.9553,-4.8932
ZrAlBr2,30.7577,25.9553,-4.8024
LiSbSN2,22.1462,17.03,-5.1162
ReOs3,29.6348,37.0646,7.4298
Hf3(ZrPa)2,109.1773,87.8897,-21.2876
InFeRu2,30.9453,26.6309,-4.3144
CaZr2Sb,57.5203,47.4092,-10.111
Sr3(GaN2)2,0.5907,2.8789,2.2882
UGa2Ni,22.7817,25.665,2.8833
TaCoSe2N,71.7796,61.5349,-10.2447
SnOsRu2,24.1174,28.3662,4.2488
YB,66.0245,59.8423,-6.1821
Zr2ZnOs2,49.2919,44.8631,-4.4288
GdThCuTc,48.6279,48.5255,-0.1025
ZnAuBr4,14.2605,16.5596,2.2992
Rb3PtBr6,16.2556,13.7144,-2.5412
Li2TeW,20.7216,21.4079,0.6863
Ca(TeRh)2,36.9539,30.3445,-6.6094
NbTe3N,54.8294,47.3122,-7.5171
LiAlAg,15.6155,13.2677,-2.3478
Pb2CSe,49.9667,44.6717,-5.295
ZnPdBr4,11.4506,13.0578,1.6073
ScGaSi,15.546,14.8381,-0.7079
LaYNF2,36.7464,27.8124,-8.934
CaYGa,11.2007,9.5914,-1.6093
VIn3Bi,49.7757,43.8905,-5.8852
Sm2Y(InAg)2,24.4601,23.795,-0.6651
AcPmPtBr,47.0455,42.8839,-4.1617
AcSbRu2N,42.8635,38.719,-4.1444
PmZrCdGa,37.3905,34.3498,-3.0408
Pm2HoRu2,32.2693,30.5516,-1.7177
BeGaCu3,6.7828,5.704,-1.0788
Ca2Al4I,8.4867,7.6994,-0.7874
YBO,29.7615,26.3032,-3.4583
Na2MnSbTe4,45.4569,40.1882,-5.2687
Na2CuPtO4,18.1198,14.826,-3.2938
SiRuSe2,35.3372,29.4768,-5.8604
AuSe2I,42.3785,37.7277,-4.6509
SiRuSe2,35.5553,29.4768,-6.0785
Ac2Zn4GaGe3,19.1204,20.4347,1.3143
MgCdP2,7.9575,8.5279,0.5704
ReIr,11.6922,25.738,14.0459
SiPdSe3,30.6805,25.344,-5.3365
Na3NiAu,25.9905,23.4244,-2.5661
TePb2Br,43.4252,41.1853,-2.2398
Hf2Zr3Tl2,97.7683,77.5065,-20.2618
Ba4ZnCd,4.2888,5.644,1.3552
ZrTlCd2,47.0445,42.7564,-4.2881
Mn2InSn2,52.4045,45.2063,-7.1982
AcInHgPt,42.8388,37.4571,-5.3817
Cs2BaAlSb2,26.2345,21.7581,-4.4764
CaHfP3,42.3131,31.9532,-10.3599
AlCoCl2,17.1739,12.1846,-4.9893
Na2LiNb,48.9797,39.8623,-9.1174
Zr2TaPb,71.5909,65.3543,-6.2366
ZrTaPb2,60.4414,57.7518,-2.6896
Sn3IrBr,23.3975,24.3712,0.9737
InSiW,25.1113,25.8711,0.7598
Zr2TaPb,71.5704,65.3543,-6.2161
Y2TiPt2,47.803,33.1197,-14.6833
YTiPt3,72.2002,48.8812,-23.3191
BaSr2Au,18.1753,20.584,2.4087
Re2IrRu2,24.4454,29.7361,5.2907
Ce4PaZn,29.0913,32.2701,3.1789
Ir5C,47.3343,47.2722,-0.0621
Rb2SrO3,0.0,0.0298,0.0298
Ta3PbN,22.8591,29.93,7.0709
AlGaPb,18.0741,20.7182,2.6441
Al(GaPb)2,21.7559,23.3728,1.6169
PmZrCd4,33.1251,30.6475,-2.4777
ZrSb2Te,57.506,46.6244,-10.8816
Al2Ga2Pb,15.1653,16.6166,1.4513
BaScGa,3.4477,3.4261,-0.0216
Y2TiGe3Pt4,48.7642,34.3947,-14.3694
ZrSbTe2,56.4261,49.0147,-7.4114
GaTePbN2,22.4491,22.3349,-0.1142
YZrOsPt,61.3146,50.7492,-10.5654
AuCl2,18.8691,19.7168,0.8477
AcLaThSn,50.6223,48.9557,-1.6666
ZrSb2Te,57.4785,46.6244,-10.8541
AcPmPt,58.8768,52.257,-6.6198
AcPmPtI,49.3057,44.9044,-4.4014
OsRhBr2,29.0556,26.408,-2.6475
LaY2ZrPt,54.3055,40.4753,-13.8302
AuCl,6.4482,10.2724,3.8241
Sr(In3Au)4,25.7874,26.532,0.7446
AcSm2Sb,39.4432,39.7251,0.2819
Th4BiTe2As,50.6455,51.8863,1.2407
AcSmSb2,43.9398,40.9574,-2.9824
LiAlAg,15.5294,13.2677,-2.2617
Zn6CoAu2,19.3582,18.1561,-1.2021
AcSmYAg,33.8503,34.8149,0.9646
AgBi2Ru,35.8148,36.588,0.7732
Cs4RbZn,16.8985,17.0129,0.1144
HfZr4Os,96.3172,77.1485,-19.1687
KSnB3,8.8221,9.6077,0.7856
YZr2Pt,74.5179,57.7901,-16.7278
In2AsIr,23.4437,25.5987,2.1549
Cr2NiRh6,40.0027,29.7729,-10.2298
Mn2NbZnN,77.0941,62.6779,-14.4162
Ce4ZnSn,21.1102,23.1286,2.0184
Ni2BiSbP,31.3634,27.4026,-3.9609
ErSc2Al,11.2945,13.6676,2.3731
TlCdRe2,67.501,60.6554,-6.8455
TlCd3Re,54.6156,47.8425,-6.7732