Formula,E_hull_DFT (eV/atom),E_hull_ML (eV/atom),Delta (ML - DFT)
Y3Hg3Pd2,23.7037,18.1826,-5.5211
TbHfSc4,31.7836,26.8612,-4.9224
YThSnHg,35.432,32.5501,-2.8819
Zr2ScSe2,51.5597,42.6638,-8.8959
Na2SbPb,36.4919,32.0304,-4.4615
Na(InCu)2,15.6128,15.6202,0.0074
DyTh(CuGe)4,15.251,17.0668,1.8158
CaYHg2,13.276,10.9203,-2.3557
Nb2HgB,64.5198,56.0239,-8.4958
Ta2FeTe,29.2332,31.5549,2.3217
ScGaI,6.7691,10.8692,4.1002
AlBiBr2,20.3266,21.1721,0.8455
La2Y2ErHg5,19.6866,15.1538,-4.5328
BaScCuGe2,19.8302,16.3754,-3.4548
BaBeCu2Ge,8.5422,7.0879,-1.4543
ThScAu4,42.6944,45.1996,2.5052
PrZrIn,37.6557,34.1033,-3.5524
Be2PPt4,52.2468,36.7263,-15.5205
SmScAg4,25.6455,21.2499,-4.3956
CdSiTc2,49.2183,41.2992,-7.9191
Tm(MgPb)2,25.2393,27.4232,2.1839
Cs2RuO6,15.3707,15.3657,-0.005
VPbC2,69.5579,55.1058,-14.4522
CsAc2(AuO3)2,25.2341,25.4835,0.2494
Ti2HgOs2,10.7525,16.7151,5.9626
ScGaBr,3.8403,6.8505,3.0102
Sr2NdCu4,11.0697,14.0622,2.9925
BaSrPb3,34.3745,35.4858,1.1114
AlRhW2,23.7453,26.8631,3.1178
CsRbNbAs2,53.94,45.438,-8.5019
NaLi3F4,5.0451,5.4888,0.4437
Ca2MgRu2,4.8051,7.993,3.1879
Ba2SbPdN,19.6089,16.0824,-3.5265
LiFePO4,13.2051,12.6931,-0.512
Ac2Nd2Ir3,36.6327,41.1815,4.5488
CsPaTe,40.7346,41.0071,0.2724
PmZr2Ru,65.9793,56.819,-9.1603
BaInSb,21.301,19.4336,-1.8674
Zr2AlNi,44.1451,41.7879,-2.3572
Cs3TlO3,5.2974,7.5495,2.2522
Pm3(NdHg)2,17.3811,19.7194,2.3383
MnCu4Pb,30.0002,27.4243,-2.5759
Ca2SnPb,17.4556,20.7172,3.2616
Sm7Sn3C2,29.3231,27.0677,-2.2553
YErHg5,10.997,9.8481,-1.1489
YTl2B,71.6307,64.4446,-7.1862
CdSi2Tc,36.0822,29.386,-6.6962
KBi3Rh,32.0411,33.1097,1.0686
YVRu3,42.1582,34.8852,-7.273
Tb2Nd2Th3,43.026,46.5765,3.5505
CdSiTc2,55.2654,41.2992,-13.9663
Nd2Sm2Pt3,45.2722,36.0598,-9.2124
Ac2Nd2Sm3,36.3443,38.489,2.1448
CdSiTc,42.7713,35.801,-6.9702
Sc3HgN,0.0,0.0,0.0
TcGe3Ru,28.2961,25.9355,-2.3606
LaPr4Sc,6.3041,5.5447,-0.7594
NiSnPt2,51.7845,37.4857,-14.2988
CuRuS2N,47.6185,37.4773,-10.1411
ScGaSn,21.7517,17.9194,-3.8323
Co(NiRu)2,18.4503,17.7294,-0.7209
Ac3(TbNd)2,42.3492,44.4977,2.1485
NaLiGeO3,9.8294,10.1603,0.3309
PrMg2TaH6,6.0152,6.2671,0.2519
ScSbMo2,29.2922,27.5805,-1.7117
Ta2CrAs,48.6309,41.2678,-7.3631
K2(TcSe2)3,35.9943,29.609,-6.3852
Pa2Si3TcIr4,43.7823,42.5903,-1.1919
Ac2Tb3Nd2,37.0367,39.1495,2.1127
BaMg2Si,4.9322,3.6951,-1.2371
ScSbMo2,29.076,27.5805,-1.4955
DyTh2Si3Ir4,36.8191,37.53,0.7109
ScTaAs,89.0765,74.9299,-14.1465
Sc2NiBr,3.0079,5.0115,2.0036
Nd8Ga3PI4,21.0283,21.4846,0.4563
Na3CrH6,4.7503,5.7118,0.9615
YHgCl2,39.7384,39.0005,-0.738
Nd3Ge13Ir4,11.8975,13.6763,1.7788
Cu5NiAs,12.675,11.7282,-0.9468
ScSb2Mo,36.2499,27.1488,-9.1011
Ba2CuSbN,10.4221,9.3926,-1.0295
ScSb2Mo,36.1371,27.1488,-8.9882
NaLiP2O,19.7572,17.3897,-2.3675
SrMn3Rh,72.6324,55.0657,-17.5667
GeSbTeN2,20.8852,18.7134,-2.1717
PrSm2InN,15.1994,15.4263,0.2269
TeRuS2N,54.4641,43.7023,-10.7618
Tm(NbB3)2,34.8094,32.0665,-2.7429
Nd2NiPb,26.6649,29.6163,2.9514
AcZr(CuGe)2,31.9054,30.6574,-1.248
DyY4Sc,15.2977,16.8111,1.5134
ThZnSi2Ir5,37.1117,36.69,-0.4217
LiAl2Br,11.2396,12.3231,1.0835
Ho4CuRu3,21.2839,23.697,2.4131
La6Cu3Sb8Pt3,46.9299,33.8068,-13.123
YHgCl,52.4835,49.0093,-3.4742
Dy2Si3IrPt4,49.1813,37.1609,-12.0204
Y3HgAu4,32.5331,31.1489,-1.3841
Li2Y(InHg)2,14.9939,12.9649,-2.029
PuZr4Sc,78.4337,67.8393,-10.5944
K2TiN,3.0679,6.7919,3.724
Y4Hg2Au,35.2729,28.573,-6.6999
YHgAu,32.0188,23.5099,-8.5089
Hg2Ge2Pt,18.2428,14.0626,-4.1802
Ta4CuSe8,41.0815,37.8957,-3.1858
Y2HgAu2,38.7362,33.953,-4.7832
DyTm(CuGe)4,11.725,13.4197,1.6947
YbFeSeO,21.0626,19.0635,-1.9991
NaScC,13.6037,10.1489,-3.4548
Ta2TiOs,29.7902,34.6062,4.816
NaSiRu2Pb,31.8788,26.3687,-5.5101
TbTmZnGe,18.0157,20.7206,2.7049
ErZr4Sc,64.1118,54.2536,-9.8582
YPuGeRh,37.8641,34.4021,-3.462
BaGeBrO2,11.2157,12.7068,1.4912
InNi2Rh,20.3019,18.9818,-1.3201
Y2HgAu,36.6347,30.894,-5.7407
BeAl2W,22.5436,20.7811,-1.7625
Zr2CrTe,61.7928,53.5074,-8.2854
ZnReTe2,44.4592,36.8261,-7.6331
Sc2AsW,27.4006,25.586,-1.8147
Tl2Fe,34.4671,36.1039,1.6369
Y6In3Ru,13.0557,12.8002,-0.2555
LaRuSe3,41.8183,33.2981,-8.5202
AgPtS4,53.9195,39.5029,-14.4165
Tl3GaRu,37.3716,37.2899,-0.0818
SrCuSn,32.3685,30.1347,-2.2338
AcVSb2,70.5792,59.4346,-11.1446
TlGaRu3,24.5719,25.1906,0.6187
Sr3CuPt3,39.7834,31.9905,-7.7929
Tl2FePb,41.5838,41.3677,-0.2162
AgS4I,43.6945,33.6895,-10.0051
AgHgS4,40.0056,29.4757,-10.5299
IrRuC2,41.4107,35.5675,-5.8432
AsWSe,52.2386,51.7075,-0.531
ZnCdTcP2,27.0207,23.8497,-3.171
YHg2Au,23.9658,21.6261,-2.3397
AsS4Br,37.6944,29.3231,-8.3714
Tm4ZnCu3,18.5016,21.1664,2.6647
YHg6Pb,12.5428,11.248,-1.2948
Na2Te2Pb,36.7508,34.2312,-2.5197
Tm2CuRu,9.2783,15.055,5.7767
SrY2HgPd,27.6308,21.2025,-6.4283
AsWSe,52.9516,51.7075,-1.2441
HgSbSeN2,21.5756,17.1467,-4.4288
CaAcCuPt,42.7367,35.3442,-7.3925
LiBiSb2,32.8296,29.612,-3.2177
CdRu2C,24.0474,24.347,0.2996
RePS2Cl,49.5325,36.8496,-12.6829
Sc2AsW,27.4155,25.586,-1.8295
CaThAu4,42.7098,44.5364,1.8266
Nd2Er3Th2,38.534,41.2828,2.7488
Mn5Nb2VB2,81.4558,64.3791,-17.0767
Cs3AgO,20.4893,19.2623,-1.227
CsNaCo3,15.4388,14.7693,-0.6695
AlMo2Pt,40.5042,30.5068,-9.9974
YInHg2,17.2271,14.5953,-2.6317
Ca2YHgC,24.0872,18.9519,-5.1353
Nd2Ho3Th2,38.0794,40.8201,2.7408
Ca2As4Rh5,26.2145,20.3507,-5.8638
TaOsPb2,46.2683,51.2249,4.9566
Re2BiO,53.4891,51.6884,-1.8006
AlMo2Pt,33.4756,30.5068,-2.9688
Ni2PRu,11.0028,12.263,1.2602
CaTb(ZrAs2)2,25.7451,25.3818,-0.3633
NaAgPb2,40.2436,38.1342,-2.1093
GdGeBr,7.5578,12.3611,4.8033
Y3InHg,28.0181,22.1521,-5.866
Na(AgPb)2,38.5333,34.7242,-3.8091
TlCdBr2,22.787,23.4827,0.6957
Y5InHg3,25.4858,19.2135,-6.2723
NaAgPb,36.0967,32.4657,-3.6309
NaCaLa2Pt,44.1078,30.8736,-13.2342
Al2ZnCu6,7.9034,7.6292,-0.2741
SrMnZn3,28.3741,23.3642,-5.0099
SrNiMo,29.6246,26.7974,-2.8272
Tl3CdBr4,24.0619,24.5042,0.4423
CaCe2(InAu)3,27.8356,29.5151,1.6795
CaLa4In15,25.0144,22.3889,-2.6255
SrCa(SnPt)4,45.8702,34.9637,-10.9066
CdIrN2,10.9636,15.3926,4.4289
NbAlB,26.9572,28.6701,1.7129
TaOsPb2,40.3932,51.2249,10.8317
NaTc,34.4293,30.7223,-3.707
Tb2Zn3Ge2,13.1676,14.6953,1.5277
LaTb2(ZnGe)2,19.3354,19.4572,0.1218
CsCa(NbBr3)6,36.0204,31.5147,-4.5057
KFeO2,0.0,0.0,0.0
SiPb2,40.3749,39.6944,-0.6806
MnInS2,52.3379,40.124,-12.2138
Ac2MgGa2,18.5101,22.3106,3.8006
Ca2As2Rh,10.55,10.4205,-0.1295
TaOs2Pb,43.7424,47.7004,3.958
SbMo2As,21.6048,22.171,0.5662
Ca4Co3NiGe4,14.79,12.718,-2.0719
TlFePb,38.6312,38.2159,-0.4153
MnNiPb2,78.5652,71.0089,-7.5563
MnNiPb2,73.5761,71.0089,-2.5672
CeGdGe,20.7202,23.5965,2.8762
GdMgGe,0.0,3.6422,3.6422
Pr3Fe5Se12,16.9691,11.645,-5.324
GdFeGe,12.4777,15.3606,2.8829
GdGe2Bi,25.8635,28.1391,2.2756
Y2InHg6,13.0241,10.5013,-2.5227
Rb2NaSmCl6,1.8194,3.7431,1.9237
FeNiPb,49.6488,41.5799,-8.069
NiOsC,11.9913,16.1931,4.2018
TaInSi,24.4927,24.5823,0.0896
TlFePb2,41.9752,41.4628,-0.5125
Gd2TcGe,39.8891,37.6371,-2.252
TaInSi,24.022,24.5823,0.5603
GdFeGe2,11.4914,14.4391,2.9477
GdTiGe,0.0,3.1063,3.1063
LiU(AlP)2,34.796,30.0647,-4.7313
Tc(AgI)2,38.0409,31.5364,-6.5045
Gd2(Mg2Ge)3,9.8219,10.3398,0.5178
GdGeCl,4.8073,9.6957,4.8884
YbGdGe,1.77,7.8045,6.0345
GdScGe2,24.9268,21.0391,-3.8877
FeNiPb3,51.1998,46.0838,-5.116
Gd2FeGe,16.6903,19.0449,2.3545
CuSbSeN2,21.6935,18.3917,-3.3018
FeNiPb2,50.4908,44.4072,-6.0835
Gd2Ge2Ru2C,24.8829,25.5507,0.6678
TlFePb2,41.8244,41.4628,-0.3617
GdTcGe2,34.7738,33.0099,-1.7639
K(SnBi)2,29.0234,30.3938,1.3704
KAcPt,50.5408,43.5782,-6.9626
GdGeW,0.0,2.6551,2.6551
KZrAu2,47.5652,45.1386,-2.4266
Gd2GeSe,27.6316,28.0312,0.3996
GdScCuGe,27.8014,25.164,-2.6374
Y2InHg4,16.8785,13.7261,-3.1524
Mn2NiPb,90.1538,75.916,-14.2378
PrGd2Ge,15.4203,17.6082,2.188
Li2AlSi2Ir5,24.0398,25.8805,1.8406
GdScAgGe,30.5489,24.8348,-5.7141
Y3InHg12,10.2954,7.9937,-2.3017
Nd7Pb3C2,37.1998,34.9018,-2.298
LuFe4Sb,19.6133,18.7816,-0.8316
ReRu2I,24.2233,25.663,1.4397
ScInPb2,33.6129,34.1572,0.5443
BeSbS2N,50.3325,37.7362,-12.5963
MnBe2Pb,38.4354,33.9612,-4.4742
Pr5Nd2Y3,3.459,5.0365,1.5775
GdSiGe2,15.4696,16.0147,0.5451
GdSnGe2,17.3698,19.8112,2.4415
Gd2FeGe,16.7558,19.0449,2.2891
Gd2GeN,16.0858,19.3422,3.2564
BeFe2Pb,25.0593,20.9256,-4.1336
Gd3In3Ge2Ru,19.6224,21.7071,2.0847
GdTiGe2,16.3583,15.8519,-0.5064
ZrCrS4,48.0322,36.1441,-11.8881
Mo3OsW,78.1217,64.5349,-13.5867
SrRe2Te,43.1987,37.5818,-5.6169
BeFePb2,36.4089,33.29,-3.1189
YInHg2,17.3379,14.5953,-2.7426
AlSiIrRu,33.0842,28.6214,-4.4628
Gd3Al3Ge2Pt,30.7809,25.9867,-4.7941
Mn2BeNi,76.5805,63.7233,-12.8572
Mn2BePb,63.4956,52.4618,-11.0338
PmYCo2,31.9109,28.4983,-3.4126
Pr2Ho3Er8,24.5801,25.4981,0.918
Gd3Al3ReGe2,27.129,24.8127,-2.3163
PrThGe3,11.688,14.978,3.29
SiRh3I,37.3937,27.048,-10.3457
AcLa2PtO5,32.6738,28.8837,-3.7901
BePb3I,45.043,45.4147,0.3717
Cu2SiB2Ir5,25.3598,25.3761,0.0163
K2HgTe,15.7937,15.4346,-0.3591
Mn2BePb,63.2531,52.4618,-10.7913
CsThTe2Au,38.9055,41.0716,2.1661
YTlHg,30.1077,30.1312,0.0235
MnBePb2,51.5458,46.6529,-4.893
Ac2Zn3Pt4Au,54.9692,44.9374,-10.0318
MgSn(H3Ru)2,2.2303,3.5966,1.3663
Co(CuSn)2,44.3288,38.2056,-6.1232
CaI2,12.0679,17.0427,4.9748
ScIrRh2Pb,48.1884,36.4614,-11.727
Y2TlHg,37.5975,31.7148,-5.8827
CaCdAs2Pd5,14.1982,15.7744,1.5762
Y2TlHg,37.7414,31.7148,-6.0265
Ca3YCd4,15.3438,14.7263,-0.6175
Sc3AlIn,9.6986,9.6954,-0.0033
YZrTlHg,49.6949,43.1071,-6.5878
K3(GeSe2)2,23.0279,20.7306,-2.2972
Ce2MgIn2,14.4889,17.386,2.8971
K3(GeAs2)2,6.52,7.8109,1.2908
TlInCu3,18.9657,19.7962,0.8305
RbCaNpI6,22.6391,23.2775,0.6384
CaZn3Pt2,27.5518,20.6099,-6.9419
ScRh2SeS,49.9426,39.2104,-10.7322
ScBi2Pb,41.5649,43.0523,1.4874
CaPrCuSe3,33.0539,26.622,-6.4319
UTa2AlC4,38.4767,33.1529,-5.3237
Er2PtPb,49.4822,44.6212,-4.8609
Pr2Ru(CN3)2,34.5722,28.4147,-6.1575
Co3CuSn,28.8278,25.9774,-2.8504
UAl2Rh,30.3711,29.7555,-0.6156
U3Al7Ag2,24.0291,24.6155,0.5865
UAlIn,30.623,33.476,2.853
UAlCd,30.3665,33.095,2.7285
Ca2ThNi9,9.3486,9.3316,-0.017
U2AlGa8,18.7158,20.2155,1.4997
Ca2Tm(Zn3Pt2)3,35.9087,26.6928,-9.2158
CuGeSb2,26.8686,22.965,-3.9036
LiInOs,22.5262,23.5697,1.0434
TmCu9Au2,15.3714,16.9165,1.5451
BaY2Os,43.7304,39.4716,-4.2588
Li5In4Pb,15.0746,14.3702,-0.7044
ScIBr3,2.9833,3.2975,0.3142
K3BaNa8,19.4176,15.6055,-3.8122
LiTa4In,29.1713,30.5967,1.4253
Li2In2Pb,17.6566,17.6705,0.0139
Si2Ni2Bi,14.2721,14.7838,0.5117
LiLuInRu,18.3892,20.2907,1.9015
CaTh(AsPd)2,20.0083,22.7473,2.7389
NaLiTbIn,18.9596,18.1133,-0.8463
Zr2FeSi4Ir3,38.2387,33.231,-5.0076
LiScInPb,20.7114,20.8436,0.1322
InAg2W,63.9066,49.4181,-14.4884
C2ICl,36.9406,26.9023,-10.0382
Th6Ge3P2S,39.7361,41.9392,2.203
LiCaIn6,15.9669,16.4175,0.4506
YPuAgRh,41.2657,37.5479,-3.7178
Ni2SbAu,30.8503,28.0559,-2.7944
La2TmMg2,24.2328,19.7029,-4.5298
AlRe3,20.5551,27.6334,7.0784
Li2Dy2ErIn5,15.5175,17.0677,1.5502
Ca2Tm(HfAs2)3,43.1721,33.738,-9.4341
Na2Pb3I8,29.2618,29.2579,-0.0039
Ca3NdPb12,41.5863,42.5411,0.9548
Li2In2Cu,8.5913,8.4356,-0.1558
ZnGaGe2,5.875,8.5888,2.7137
ScNbPd,37.307,32.7414,-4.5656
FeOsW2,95.2767,77.7977,-17.4791
NbGe2BC,54.2048,44.3465,-9.8583
LiInCu,10.6174,10.7154,0.098
NbAlB,41.5572,28.6701,-12.8871
TbTm3N4,13.4424,15.2785,1.8361
RbYHg2,12.8531,9.6461,-3.207
Pr2Th4Pb3N2,39.513,39.814,0.301
LiGdIn2,18.1792,19.1414,0.9622
Zn(GaGe)2,5.746,7.3247,1.5787
In2AgW,61.0005,48.8067,-12.1938
CsGeO3,9.1236,9.1322,0.0086
Sc3ICl,21.8928,20.6231,-1.2698
Li(DyIn2)3,20.6332,22.0285,1.3953
Y2Hg,19.6788,14.8814,-4.7974
K2TePt,38.8203,30.8236,-7.9967
InAgW2,65.5321,55.0454,-10.4867
Pr2InSi2,2.056,2.7156,0.6596
Li4TmIn5,14.783,14.2884,-0.4946
Mn2Fe2Co3,44.9594,33.8788,-11.0805
InAg2W,63.8839,49.4181,-14.4658
Pr6GaPd2,0.0,0.3342,0.3342
Mn2Ga2Fe3,40.316,30.9256,-9.3904
Y2HgS2,41.7588,29.4737,-12.2851
LiIn2W,21.1693,22.1614,0.9921
CsNa2TlHg4,15.1963,14.2042,-0.9921
CsCeO3,9.8532,10.1411,0.2879
LiLuIn,19.2588,19.7792,0.5204
LiGdIn4,18.8123,19.5135,0.7011
K2BeW,20.0969,18.7414,-1.3555
RbYHgS3,31.3189,22.3024,-9.0165
YHg3S,21.6752,15.668,-6.0072
LiInTe3,30.4468,28.2474,-2.1993
Ca2TaHg,11.8938,14.1772,2.2834
LiGdLuIn,21.7377,22.965,1.2273
YPu2Rh9,49.544,39.1647,-10.3794
Cs4LaPa3O12,18.4213,19.5918,1.1705
NaLiIn2Se,23.5362,20.3612,-3.1749
Ca2La(InPt)3,42.432,32.2957,-10.1363
TeAsCl4,13.4083,12.3746,-1.0338
Mo2Pd3Rh2,30.2969,24.5689,-5.728
AsPAuC,34.126,30.0165,-4.1095
NiPtI3,33.6613,28.4297,-5.2316
Cs2NpPdO6,17.9979,18.6267,0.6288
CaCe7Sb8,32.9922,29.1054,-3.8868
Li2YbIn,14.8847,15.0076,0.1229
Mo3(RuRh)2,37.9294,31.545,-6.3844
Na2Al2As3,14.5553,10.548,-4.0073
Mo3(RuPt)2,39.1162,32.0576,-7.0587
Na2Al2Sb3,23.4331,19.2301,-4.203
Sr2Ca(Cd3Pd2)3,17.9334,17.9149,-0.0185
TlZnMo,25.6711,27.104,1.4329
Ta3(MoRh)2,33.8461,33.3224,-0.5238
Tm2Mg2Pd,16.4365,18.9657,2.5292
Sc2SiMo,29.2157,27.2767,-1.9391
NaFePb,24.2043,24.5155,0.3113
LiInMo2,14.1703,15.7487,1.5784
MnNbCl3,50.6619,40.3037,-10.3582
ScFePd2,24.731,25.2527,0.5217
CaAcLa4,41.8188,32.9187,-8.9001
TbY4Hg,20.6924,18.1179,-2.5745
KNa3Ge,13.174,10.5257,-2.6482
AlPb2W,37.5842,39.348,1.7638
Cu4RuRh2,27.6645,21.9825,-5.682
Be2RhPb,21.3815,20.403,-0.9786
Na2Pm2Tl3,35.6685,35.7436,0.075
GdYHg4,12.9257,11.6256,-1.3001
NaCdSn2,21.4854,21.3638,-0.1216
CeIn2GaCl6,4.6289,6.8863,2.2574
YHg3,9.9844,7.6812,-2.3032
Cs2LaNF,21.5632,18.771,-2.7923
CdAuBr2,22.3158,23.6773,1.3615
AgBP2S,20.7342,19.1088,-1.6254
TiReN3,61.0811,53.9215,-7.1597
NiSbBr2,26.8438,22.7738,-4.07
Sc3HgO,34.4486,34.8145,0.3659
PrSiRu2N,32.0418,27.9027,-4.1391
Yb(AlGe)2,27.5742,22.8534,-4.7208
Cs2SmCoO4,3.9632,7.1656,3.2024
K2Na2Sr3,16.26,15.0587,-1.2012
OsPtI3,41.3665,35.7792,-5.5873
K3(RbNa)2,12.7463,10.6785,-2.0678
SrTi2Cr,21.759,20.962,-0.797
YGaHg3,12.1316,9.5109,-2.6207
LiIn2Sb,22.2977,19.4109,-2.8868
LiErMnIn,38.387,32.9051,-5.4819
LiTaIn,20.9044,21.9908,1.0864
FeReW2,40.2982,40.9844,0.6863
LiInRe,22.1308,23.5776,1.4468
Na2Pr2Tl3,27.2141,27.2763,0.0622
YGa2Hg,16.5139,14.4762,-2.0377
Cs2TcO6,15.458,15.2393,-0.2187
Eu2Ag2Pb,27.6281,26.2442,-1.3839
Cs5Hg2AuO,23.2426,22.2509,-0.9917
LiScMnIn,32.6863,26.7205,-5.9658
Li3InRu,9.0738,8.8492,-0.2246
KBeW2,26.7623,27.4319,0.6696
Li2CrIn,5.405,5.875,0.47
PrY2(SnHg)2,21.0731,16.7365,-4.3366
YNi4Hg,30.4589,27.8735,-2.5854
Li2Ca2TbIn5,11.2476,12.4967,1.2492
Li2InCu,5.437,6.6275,1.1905
Tb8As4PS3,27.0953,25.2648,-1.8305
LiInW3,30.9756,32.0318,1.0562
KSr3Pd,6.4587,9.6229,3.1642
Ge2MoOs,22.6588,23.2729,0.614
HoTl2Cu,34.107,35.684,1.5769
Cd2OsW,94.0203,75.3936,-18.6267
LiThIn2,27.5563,28.7921,1.2358
CdTe4Se,39.8022,36.5799,-3.2223
Hg2IrI,15.1072,16.9888,1.8817
LiIn4Pb,22.8858,23.0215,0.1357
Y3(Ag2Hg)2,30.4763,22.5042,-7.972
Cd2OsW,94.1805,75.3936,-18.7869
TlTcI2,48.0579,43.8515,-4.2064
Li5InPb4,23.4658,24.2375,0.7717
Pr12YHo7,9.1594,9.5686,0.4092
CdOsW2,98.5684,82.7196,-15.8488
Pr3NdNi3,11.3335,8.8781,-2.4554
Ca3CdGe3,4.776,8.4258,3.6499
CaThInI6,20.9163,21.7214,0.8051
LiUIn2,28.3563,29.4661,1.1098
KBeW2,26.9401,27.4319,0.4918
NbPtSe2,82.1096,65.2792,-16.8304
KRbRh2,26.1395,19.0611,-7.0784
NaSF4,18.0388,14.9997,-3.0391
Sc3CdN,1.6232,3.8889,2.2656
Zn3SnBr,11.6758,11.8838,0.208
TlP2Br,18.0037,15.286,-2.7178
Zr2NbSb,95.5527,79.3406,-16.2122
SrWSe3,47.8923,34.2641,-13.6282
LaRu2Rh,44.6323,34.9235,-9.7088
Cs3PdO4,17.8842,17.9386,0.0544
Tl2PBr,29.1361,29.6611,0.525
Tl2PBr,29.2478,29.6611,0.4134
Li3InRe,14.4865,14.3094,-0.1772
Rb(Cd2Sn3)2,18.4663,18.9326,0.4662
YHgPd2C,30.071,24.7346,-5.3365
Al(PtAu)2,50.246,41.7519,-8.4941
Na2Si2Au3,31.3132,28.4502,-2.8631
Li3TaIn,13.6196,13.6857,0.066
CaTb3(SmRh3)2,35.041,28.6184,-6.4226
Na2Sr3In2,18.2394,17.8919,-0.3475
Na3(CdPb)2,30.9376,29.3142,-1.6234
NbRePb2,72.5677,68.2342,-4.3335
AcTb4Sc,29.9632,31.7811,1.818
LaCoF2,12.5386,10.8064,-1.7323
NpTlInCl6,12.5555,14.7319,2.1764
TiCoRh,3.1167,2.6525,-0.4642
LiInSn,12.0276,12.6944,0.6668
As3AuCl,18.4522,17.6521,-0.8001
TaMn2Sb,70.354,57.315,-13.039
ReHg2Br,13.6747,14.6523,0.9776
Ga2Ni2Ag,7.5347,9.1201,1.5854
ScAs2W,29.3113,26.1933,-3.1179
RbNiI,10.8066,11.4673,0.6607
RbGaSn2,10.0133,11.2275,1.2142
LiInPb2Br,34.8763,34.3841,-0.4922
Cs2CuSiTe4,26.3657,25.7199,-0.6457
K3In2Sn5,14.8865,15.3169,0.4304
K(SbPb3)2,46.2683,44.3335,-1.9348
Li2InW,16.3806,17.9461,1.5655
NaLi2InMo,14.0972,12.9263,-1.1709
Sc12Sn5C2,23.0552,17.8441,-5.211
LiIn2Sb,22.3151,19.4109,-2.9042
CsRb(CuBr3)2,9.7325,9.5851,-0.1474
Er4ScTc,60.9338,55.3779,-5.556
LiTb2InO,26.2718,25.9023,-0.3695
Ca2PrNdAg4,16.1777,13.3389,-2.8387
DySnPd4,15.5639,17.6477,2.0838
LiMnIn2,36.1755,30.0831,-6.0925
Li2InRu,10.4401,10.9852,0.5451
LiCaV2In,58.5216,46.1943,-12.3273
Na3(TlIn)2,30.6303,28.9682,-1.662
ScAsW2,35.7516,33.9626,-1.789
UGaNi2,15.3539,20.1137,4.7598
YbCuF4,5.1246,7.7119,2.5873
TiPt,38.7302,30.6428,-8.0874
SiBIr3,29.4332,30.6789,1.2457
Na3(AsP)2,24.1272,20.0801,-4.0471
Sc(VIn)2,56.7401,45.9936,-10.7466
NaLiZrAg2,38.2775,30.187,-8.0905
As2AuCl,19.7821,19.2471,-0.535
RbSnC2Se,41.313,30.8034,-10.5097
ScAsW2,36.0609,33.9626,-2.0984
FeWAu2,35.4088,36.7919,1.3831
Ca2PdI,11.8745,13.5731,1.6986
PrZr2F11,10.3334,10.4463,0.1129
Pr7C3Br10,7.9386,4.4932,-3.4454
ZrTeOs2,56.3658,54.6713,-1.6944
ScAsW2,36.0073,33.9626,-2.0447
CuBiTe2,36.4769,37.0601,0.5832
ZrTeOs2,56.1853,54.6713,-1.514
Y2Ho5In3,19.5053,20.9279,1.4226
NaS,22.1327,15.9355,-6.1973
ZrNiBr2,31.916,29.1235,-2.7925
CuBi3Te,42.9335,43.1042,0.1708
KFeCl3,0.0,0.0,0.0
TaTiOs2,30.8313,36.6555,5.8243
CsLaAuN2,26.5358,23.9592,-2.5766
CsNiB3,7.9399,9.3557,1.4158
ScAsW2,35.9522,33.9626,-1.9896
Ca2ReNi,34.1043,24.7111,-9.3932
Hf3Ru5,63.6483,50.4138,-13.2345
Tm2UMn2,57.8689,52.9326,-4.9364
Pm9Nd4Al11,15.0057,16.1291,1.1234
FeIrW,29.6082,33.6418,4.0336
Th2Ge4Pd3Au,26.2368,28.213,1.9762
YHgMo2,24.0992,19.7564,-4.3428
Tb9Pm4Al11,15.1567,16.8692,1.7125
Tb9Nd4Al11,15.6649,16.8561,1.1912
Y2CrHg,39.0217,29.787,-9.2347
Mn(CuAu)2,41.4572,38.2633,-3.1939
ZnMoRh,23.9004,21.6267,-2.2736
Pm4Sm9Al11,14.579,16.2601,1.6811
FeIr2W,32.9655,35.8955,2.9301
Tl3Pd2Cl7,17.4428,17.9023,0.4595
Tb9Sm4Al11,15.1929,16.9129,1.72
LiTh2Ge3Pd4,22.3542,24.4617,2.1075
UIrS4,55.6538,46.0757,-9.5781
Hf4Sc9Al11,28.2717,21.1083,-7.1634
MnBeZn2,34.5548,24.9473,-9.6076
MnBeZn2,34.6181,24.9473,-9.6708
RuRh2I,40.7707,31.4385,-9.3322
GaNi2AsAu,24.986,21.7024,-3.2836
Ac3Pr2In3,30.1284,31.7333,1.605
ReHg2Br,13.9895,14.6523,0.6628
TlRh2I,43.4771,36.6233,-6.8538
SiIr2S,39.8969,31.8321,-8.0648
Cs3Sr2Cl7,14.1697,13.5492,-0.6205
Li3InSb2,18.9291,15.4072,-3.522
Mn(AgPd)2,39.7804,32.8191,-6.9612
ScAlH,0.0,0.0,0.0
Ta4Ti9Al11,10.6622,11.4055,0.7434
Tb4Er9Al11,16.4872,18.2182,1.731
RbSbS4,41.568,30.3786,-11.1894
RbPmS4,36.1935,28.6642,-7.5293
Ca3Pd2Pt,18.1166,16.6424,-1.4742
Sc2CuSe2,28.5189,22.6915,-5.8275
SrCaDy,15.4057,16.0276,0.6219
LiInSb2,28.5668,23.4128,-5.1539
BeGa2Sb,12.7656,12.5286,-0.237
GaNiIr2Se,31.1069,30.9705,-0.1365
Ga2Ni2Os,8.3027,12.7562,4.4535
CaPm3Ag4,25.309,22.6701,-2.639
LuMgIr,14.4283,21.3538,6.9255
LaPr2Ag,18.2511,13.8128,-4.4383
CsRbGaNi2,10.8358,11.0014,0.1656
Ga2NiAg2,14.1727,12.7368,-1.4359
BeGa3Ni,6.7951,8.0468,1.2518
Ga2NiBi,19.7288,21.4732,1.7444
Ho3(SiIr)4,28.0305,27.6768,-0.3537
GaNi3I,10.6749,11.8898,1.2149
CuBi3Sb,44.1945,42.2519,-1.9427
YHgSCl2,43.89,38.5619,-5.3282
AcLaS4,55.4052,42.3962,-13.009
InGaNi2,9.9356,12.3234,2.3879
Y2GaSnHg,27.4039,21.148,-6.2559
FeOs2W,103.6418,82.3557,-21.2861
NaSO3,0.0,0.0,0.0
Mo2Ir2Rh,37.7124,33.8763,-3.8361
Mo2IrRu2,26.9889,18.9481,-8.0408
AcYHg3,19.6706,19.1574,-0.5132
InGaNi3,10.4717,11.6312,1.1595
Hf2MnNi2,91.4538,70.2644,-21.1894
AcYHg,30.2317,29.5373,-0.6945
Ta2Ru,29.5771,35.3922,5.8151
Ga2NiPb2,21.9653,23.5169,1.5516
ErH5Pd,6.5063,8.0655,1.5592
AcY2Hg,41.3052,35.6191,-5.686
UGa4Pb,25.89,27.4901,1.6001
Tc2MoOs2,60.298,54.3658,-5.9322
Tc2MoW2,45.1642,45.131,-0.0332
Y6CrPb2,30.7626,29.3346,-1.4281
RbSr2MnCl8,17.3107,15.0309,-2.2798
NdUS4,51.8959,42.2899,-9.606
ScAsPd,0.0,0.0,0.0
Tc2MoIr2,51.1211,48.6964,-2.4247
NbReS4,67.4227,54.1784,-13.2443
Ga2NiAgOs,19.8637,19.665,-0.1986
NaVTc2Ir,78.8555,65.5587,-13.2968
CePr2Hf,40.1867,32.1247,-8.062
Rb3(TeN)2,21.5233,21.2415,-0.2818
RuRh,0.0,0.0,0.0
RbGa3Ni,8.3913,8.6067,0.2154
CsHfIr2,58.0966,52.0926,-6.004
Pr2TmN,8.6136,9.5822,0.9686
VCoAu2,53.8524,49.4404,-4.4119
Y(HgOs)2,22.0787,23.7338,1.6551
As(PbSe)3,52.9092,48.8631,-4.0461
La7Tl3Co2,43.8469,33.8438,-10.003
Sr2AgAs,21.4812,16.5576,-4.9235
Ca3CdCu14,8.3288,8.6935,0.3647
Ti2BiTePb,32.7917,33.2659,0.4742
CsPrP,2.5983,6.8758,4.2776
TiCrSb2Te,39.1423,33.2017,-5.9406
SrTiTeI2,22.225,21.5131,-0.7119
SrTiTe2,25.9128,25.6911,-0.2218