Formula,E_hull_DFT (eV/atom),E_hull_ML (eV/atom),Delta (ML - DFT)
YZrCuS3,49.1106,36.6468,-12.4638
TaTeMo,34.7585,35.0432,0.2847
Hf4CuIr,103.7946,78.0968,-25.6978
CoIr2N,78.8765,72.9061,-5.9704
Tb3NiSn3Ir2,27.9722,28.2357,0.2635
NaY2(CuS2)2,42.8467,32.1319,-10.7148
Zn2InSbP,17.5826,15.9434,-1.6392
Mg(ScP)2,31.8651,24.9849,-6.8802
Zr(NiRu)2,20.9035,21.4186,0.5151
Cr2ReBi,21.5399,23.6643,2.1244
YSe,29.3253,27.2817,-2.0436
Sr(HfZr)2,92.3307,70.5454,-21.7853
LiSc2Au,10.1844,14.1783,3.9939
Sr(ZrAg)2,49.9494,41.3649,-8.5845
Ba2NiF,4.1207,2.4253,-1.6954
CuIrI4,23.667,25.1221,1.4551
Hf4InCu,100.1012,74.1635,-25.9377
Pm4InCu,16.2626,20.0551,3.7925
ZnCdGa3,10.9723,11.5259,0.5536
SrCaIn3,17.4443,16.8792,-0.5652
BeCoB,10.9366,8.3032,-2.6334
SrIn2Ge,12.3617,14.5931,2.2314
CaZrSc2Rh,37.9003,26.6312,-11.2691
NaLi(PrTe2)2,21.7002,21.038,-0.6623
SrCaIn,14.8612,14.0013,-0.8599
SrCrMo4,15.9414,16.6715,0.7301
SrInGe2,9.6315,12.6628,3.0313
Ta4CuP,30.0451,31.2806,1.2356
InSiBr3,14.0753,12.6719,-1.4034
In2SiBr,16.7294,15.8995,-0.8299
PaBMo,27.7617,32.3985,4.6368
BaMn2Cu,52.8109,42.7394,-10.0715
BaMn2Cu,52.5989,42.7394,-9.8595
InSi3Br,16.4331,11.6896,-4.7435
MnP2Pb,39.8743,36.2504,-3.6239
SrMnAg,48.5878,40.8911,-7.6967
LiPu(NiO2)2,18.4291,19.1109,0.6818
LiNi2SeO4,11.3153,11.0808,-0.2345
CuSiW4,30.7668,33.4765,2.7097
Mn2PPb,63.876,55.3243,-8.5517
CaTcW4,42.433,44.7301,2.2971
CuMoPt4,70.9062,48.1724,-22.7338
BMo2I,14.6196,17.2725,2.6529
YErHf2N4,53.7516,42.4779,-11.2737
CaTl4Tc,50.7668,49.3068,-1.46
MnAgSb2,55.3375,43.9819,-11.3555
Sr2Zn(BrO)2,16.9401,14.6082,-2.3319
K2CaIr,26.3288,21.3099,-5.0189
TbY4CuS8,40.6801,31.668,-9.0121
Sr3CaCu,11.9891,11.5134,-0.4757
YNbSe2N,73.1227,58.4846,-14.6381
YNbSe2N,71.815,58.4846,-13.3304
Ba(CrP)2,42.2795,34.7676,-7.5119
Y2GaSbS,28.1826,23.1887,-4.9939
Na3SnC,32.4193,25.3998,-7.0195
CuPt4Rh,63.0692,43.0553,-20.0139
Th4CuRe,43.9796,47.2169,3.2373
Zr5Ta3(Ni4As3)4,34.8886,27.7016,-7.187
Tm5Ta3(Ni4As3)4,25.3953,21.4709,-3.9244
Ba2Pa3RuO12,11.3845,15.2255,3.841
CuRh4W,40.1928,32.4203,-7.7725
HfPbSeBr2,58.9683,45.587,-13.3813
YTm(MoN3)2,12.8492,12.4833,-0.3659
CrSb,7.3799,3.823,-3.5569
NaHfSe2,65.4467,49.639,-15.8077
Ce2PrTi,12.8888,16.5439,3.6552
HfMo2PbSe,56.3421,46.5213,-9.8208
BiRh3Se,50.2846,39.4681,-10.8165
PaCdBi3,50.0862,51.8981,1.8119
RuIO,25.5831,21.3391,-4.2439
LaScGaRh,28.0015,22.2295,-5.7719
Ta2Cr,50.29,45.5969,-4.6931
BeCu4Pt,22.3438,17.2323,-5.1116
BeCu4Ir,14.8104,15.3664,0.556
Cs2SnAuF6,16.8823,15.7858,-1.0965
Tm4CuSb,23.9151,25.0831,1.1679
La3Ce3Ni,29.7557,23.5259,-6.2298
SbAu3I,42.9303,41.116,-1.8143
RbCoC2,37.4962,26.8279,-10.6684
FeRe2Ir,42.0667,42.9384,0.8717
TaIn,21.5627,28.9304,7.3676
Lu2OsRu,30.9323,34.4029,3.4707
Ba3Cr2WO9,0.0,1.1298,1.1298
Co2PPt,27.7319,20.0566,-7.6753
LiNdGa3,6.0502,8.8471,2.7969
Y11Hg9Pt4,37.3414,26.5828,-10.7586
Co2PPt,33.928,20.0566,-13.8714
Rb2InF6,6.5207,5.4668,-1.0539
Tm3Ga,24.8889,27.0154,2.1266
Y3GaAg3S8,38.9947,29.5933,-9.4014
Tb2ErCu2,14.4779,18.1683,3.6904
YGaPbS2,38.1788,31.8262,-6.3526
KRb2Tl,15.4652,15.5079,0.0427
FeNi3Pb,33.8507,28.1881,-5.6625
La2PuN3,28.3528,24.8062,-3.5466
Sr4Si2As,28.4831,20.7988,-7.6843
Zn4CuIr,12.8824,12.4108,-0.4716
SmPaNi10,12.5144,14.5044,1.99
CdHgPb3,28.0796,30.9784,2.8988
Tb13Ho3,26.9282,28.5101,1.582
KNi2Pd,7.4038,9.746,2.3422
MnCd2Te,41.8994,38.0021,-3.8972
Y2ErZr3N6,46.3514,38.0708,-8.2806
Sm2ThNi9,7.7933,11.7928,3.9995
Pr6Pd5Rh,8.4546,9.2197,0.7651
Sm(Ni2Ge)2,8.5705,8.0394,-0.5311
SnAuSe3,38.7035,34.0055,-4.698
NaPPdCl2,12.4891,11.4993,-0.9898
TbY(ErAs2)2,15.8908,18.6471,2.7563
Zr4CuIr,73.5175,61.1372,-12.3803
LaCrI,23.3011,19.95,-3.351
Zr4CuRu,69.4881,57.1184,-12.3697
CuAgAu4,37.9015,38.2607,0.3593
Ce2Cu3NiGe4,13.0346,13.113,0.0784
HfZrCu4,45.0571,35.9668,-9.0902
Zr4CuRe,73.2036,61.3044,-11.8992
KCdSn4,18.9447,19.7246,0.7799
SrHf2Pt,97.7908,70.5903,-27.2005
Rb4YEr3Te8,26.5335,25.2901,-1.2434
PaSN,30.7483,36.296,5.5477
Tb2Ni2Ge5Pd,10.2694,10.859,0.5895
TbYZrSc,36.1464,33.655,-2.4914
Tl2CoPt,49.9323,43.0914,-6.8409
Pr12Er5Tl2,10.0652,11.2533,1.1881
RbZnPt,32.8536,23.2216,-9.632
PmYAlSn,30.3099,28.01,-2.2999
PrTm5Tl4,34.9848,37.1595,2.1747
NaLaBe3,16.8777,12.6526,-4.2251
Tm3In3Ni2Rh,23.9102,23.3063,-0.6039
Sr2ZrRu,36.0589,32.2228,-3.8361
CeSc(GeO4)2,24.2885,22.8662,-1.4223
ReSn3C,42.3693,37.7889,-4.5805
ReSnO2,63.1756,53.0573,-10.1183
SrZrRu2,36.2379,34.0822,-2.1557
LaCuSb,28.4696,22.3342,-6.1354
CeYZnIn,18.3802,18.8174,0.4372
NaTeW2S,42.0216,38.2952,-3.7265
RbLa2PbO5,22.8501,22.1599,-0.6902
V6PbO15,36.8511,30.1126,-6.7385
La2CuSb,38.1739,28.1812,-9.9926
Pm2Pr4Sm,7.9284,11.4037,3.4754
LaCu2Sb,27.3083,21.3106,-5.9976
Hf3CdSn,87.6208,64.7819,-22.8388
NaBeInAu3,27.7857,28.5984,0.8127
Ce3Pr3YSe8,29.4067,24.8779,-4.5289
YCoN2F,72.292,59.604,-12.688
Pm(Pr2Ir)2,12.9308,16.3185,3.3877
Ti2RuAu,24.1583,23.0138,-1.1445
Ce5CoPb3,26.9724,28.8504,1.878
Pu3Co3As4,23.2544,23.7801,0.5256
Tm2Zr2Bi2H,51.9142,47.8826,-4.0316
Sc(CoTc)2,70.6577,62.0457,-8.612
TmB2Mo,11.6511,16.0326,4.3815
Na2PrMnSe4,41.6018,34.9171,-6.6847
AcSc(IO4)2,41.5457,37.291,-4.2547
LiInCo3,9.4834,9.9545,0.4711
PrY3(ErSe3)2,30.5667,26.2901,-4.2766
HoSc2US4,49.6398,44.2333,-5.4065
K(SbPd)3,24.8253,20.2001,-4.6252
Nb2AsP,73.9964,62.2539,-11.7425
PrFe2P,26.1817,22.7323,-3.4494
La2Ga4CoGe2,17.4043,14.4725,-2.9317
ZnCo2Ir,22.8017,20.9327,-1.8689
CoNi5Pt2,30.1572,22.2651,-7.8921
Sm7Co2Ge5,0.0,4.0991,4.0991
LuNbSb,52.2706,47.1603,-5.1104
LaTb(ScS2)2,47.105,39.3173,-7.7877
CaOs,24.1202,27.6029,3.4827
GaCoH5,0.0,1.0336,1.0336
ScTi3Cd,9.3533,10.6455,1.2922
Ta2SiP,26.7328,29.2807,2.5479
NaHfSe2,64.9464,49.639,-15.3074
K2CrSe,20.3858,16.8107,-3.5751
CeHo5Zn4,19.4418,21.4261,1.9842
ZrTlH,44.6358,40.9209,-3.7149
NpCuSb,33.4113,33.2521,-0.1592
Na2SrI4,17.7255,18.0956,0.3701
YMnIn,46.0663,40.2485,-5.8178
Fe2CoRu,33.6192,23.9132,-9.706
LiZrHgBr6,21.7097,18.3057,-3.404
Zr4CuIr,74.3692,61.1372,-13.232
Sc2Fe2Hg,29.3873,26.4967,-2.8906
CrPb5,45.7707,46.1775,0.4068
Ba4Co(ReO6)2,11.2611,11.2453,-0.0159
Ba2La(IrO4)3,12.7448,14.5597,1.8149
ErPuTh4,61.0006,64.7652,3.7647
Ac8Co3OsBr4,42.606,42.6362,0.0302
SrMnI3,35.9365,32.252,-3.6845
YZnS2N,49.4501,37.7509,-11.6992
La6Sn3H,31.5128,21.7478,-9.765
TaCo2Ni,45.0401,35.6221,-9.418
Ti6FeSn2H,14.8803,10.6578,-4.2225
SrRe2Cl,33.2208,35.2868,2.0659
SrReCl3,19.7232,20.3729,0.6496
SrReCl2,24.0143,25.0962,1.0819
Sc2FeHg,23.6643,22.3575,-1.3067
Rb2YAsF6,15.7618,13.7861,-1.9756
AlBMo3,24.1069,18.5811,-5.5258
Na2MnO3,37.183,36.8307,-0.3523
Na2GdMnAs2O9,2.7687,3.7089,0.9402
ZrScReRh,69.4971,55.5933,-13.9038
HfZrSeI2,68.2378,53.0559,-15.1819
HfPbSeN2,49.201,39.6555,-9.5455
BaHf3(AuO3)4,29.9846,25.0953,-4.8893
In2Bi,31.5019,32.9777,1.4758
Sm2SiSb,26.6375,25.0264,-1.6111
AlCd2FeHg,13.8184,12.1933,-1.6251
Ac4Sb2As,50.419,49.2972,-1.1218
AcSb4As,42.2518,36.0352,-6.2166
Gd4(CoB2)3,16.378,15.2687,-1.1093
FeReAu,44.3974,42.5864,-1.811
PrHo2Zr,37.8571,35.5127,-2.3443
PdRhI2N,30.8221,25.5393,-5.2828
In6Bi2Pb,31.2405,32.4488,1.2083
AcSb2As,40.6979,37.0084,-3.6894
Nd(ZnH4)2,3.7296,5.0152,1.2856
Zr(CoGe)6,7.9229,9.3868,1.4639
Hf2Co3Cu4,57.6731,43.4454,-14.2277
YbZn4Cd,13.94,14.8888,0.9488
In4BiPb2,34.5107,35.1948,0.6841
Ce3CdIn,18.1092,22.4128,4.3036
FeCoRu4,24.2804,21.8876,-2.3928
K2TaCr,44.24,33.0856,-11.1545
Li2Y(ErPb)2,25.2236,27.5338,2.3102
CeTlAu3,39.0628,41.7089,2.6461
Co2CuRe2,24.3926,26.1467,1.7541
CeHfSe2N,44.2071,34.6349,-9.5722
LiYErPb,23.7974,26.24,2.4427
SiPbAu2,40.894,40.5792,-0.3148
CsNi2C,19.954,18.3324,-1.6216
Sr4H3N,12.5071,13.4483,0.9412
SiPb2Au,42.1952,41.9153,-0.2799
K2TaCr,44.1612,33.0856,-11.0757
ZrSc2Ge,41.5587,33.1964,-8.3623
K2TaCr,44.2446,33.0856,-11.1591
PuThSb,60.5184,60.0722,-0.4462
AlBMo3,21.9269,18.5811,-3.3458
SmAgF4,6.9697,7.3122,0.3425
TlAsPtBr2,36.8845,30.9056,-5.9788
LaBeCd4,22.1921,19.4583,-2.7338
InAs2Br,12.6527,15.321,2.6683
SmEr2(PaP2)3,24.1684,26.5093,2.341
CeNdTh3,43.0357,51.2095,8.1738
Tb5Co8Sn15,17.253,18.5623,1.3093
YCoAsC2,48.087,35.7842,-12.3028
Pr3NdSmEr,6.0776,9.1518,3.0742
CePmHg3,6.7156,9.552,2.8365
NiAsPd2,22.3427,20.749,-1.5937
Y2CoAs,29.7059,26.8991,-2.8068
Y3Er(ScBi3)2,33.2667,35.0521,1.7853
SrH6Pt,12.5692,8.963,-3.6062
KCo2Se3,23.1024,21.5864,-1.516
CeSmAu3,32.8226,36.2498,3.4273
La2Pt2Br,58.3333,39.7123,-18.621
PaTiN3,4.2395,7.8896,3.6501
MgCuAs4,11.8619,10.3244,-1.5375
CaTlPb4,44.2593,45.396,1.1366
Pu4Hg2N,41.5684,42.9376,1.3692
LiSnHg4,4.9078,5.2968,0.3889
Ce3DyPu,12.8802,22.505,9.6248
CeEr3Tm,15.0262,22.2275,7.2012
NaLiBe2,6.707,5.3711,-1.3359
Tl(CoTe2)4,31.6802,30.6373,-1.0428
BaCaSb4,31.3388,24.2622,-7.0767
Ca(CoH2)6,4.4384,3.6369,-0.8015
CePm3Dy,10.7714,18.1499,7.3785
Ta2CrCu,40.4951,34.8795,-5.6157
MgCuAs,9.0775,7.0975,-1.98
Ca(CoH2)6,4.4563,3.6369,-0.8193
Ac2ScNbO8,42.1777,39.6617,-2.5161
Cs4La6CoBr14,17.9934,13.3595,-4.6338
MgCu2As,11.369,9.8186,-1.5504
CeY2ErSe6,35.3017,30.8656,-4.4361
SiH7(IrOs)2,15.7668,17.0155,1.2487
GaSbO2,37.5052,35.1616,-2.3436
VH5Os,19.3734,18.0492,-1.3242
TmAgF4,13.4864,13.5071,0.0207
CeNd3Sm,10.4543,16.515,6.0607
CaLaSb4,40.0119,30.0149,-9.997
K3SbBr6,13.7814,13.4815,-0.2998
Pr2Dy4Sn3O2,30.5769,27.7519,-2.825
CePrEr3,16.9124,19.6829,2.7706
RbAsF4,19.3208,17.5625,-1.7583
Nd3VO6,9.8644,10.4698,0.6054
PrInBi2,26.3645,29.2839,2.9194
ZnSbW,30.6801,29.7129,-0.9673
Rb2V2Si8O21,2.0872,0.1413,-1.9459
Co2ReTc,36.3377,36.536,0.1982
ErH5Ru,6.4247,7.4438,1.019
Rb2V(MoO4)3,20.2422,18.7149,-1.5273
RbV(IO4)2,20.8785,15.3775,-5.5009
Tm3MgAl3Ge2,21.9472,20.7687,-1.1785
HfVClO4,30.0389,22.4304,-7.6085
NaSrTa2,31.5903,28.0052,-3.5851
Na3Pr(TeSe3)2,36.1017,29.75,-6.3517
SnBiF2,25.1718,25.8119,0.6401
Sn(SbTe)2,35.4219,30.576,-4.8459
AcPrCo2,17.9312,22.6582,4.727
LaPtBr3,36.3923,27.3354,-9.057
KWCl2,14.7192,15.7471,1.0278
Na(LiOs)2,17.2357,21.277,4.0413
In(IrPt)2,50.9726,42.8531,-8.1195
YSiBr,33.2673,28.7475,-4.5198
TaCr2Ag,40.3273,31.1316,-9.1957
Dy3VO6,10.4668,11.9963,1.5295
Hf2GaCo4Sn,42.2144,34.6479,-7.5665
SiNiP2,15.1369,13.8382,-1.2987
TlRe2Sn,32.9732,37.5239,4.5506
PmScAgRh,28.5821,24.4325,-4.1496
Na4ReN3,43.2465,40.9568,-2.2898
CaCdF4,7.1591,7.7508,0.5917
RbSrNb,43.0104,38.5007,-4.5097
ZrReOs2,55.6153,55.2518,-0.3635
Tm6Co20As13,19.6556,15.7989,-3.8567
Fe(HRu)3,10.7307,9.3986,-1.3321
YEr2Ag,11.6341,14.95,3.316
Cd2Ag8Sn3,27.1187,23.6863,-3.4324
Nd2NiPt,35.625,30.537,-5.088
LiLaTl4,42.5289,40.3738,-2.1551
CoNi5Pt12,65.7888,44.6624,-21.1264
Ba2Li(H3Rh)2,9.7965,8.0338,-1.7627
DyTh2ScS4,51.9171,46.2489,-5.6682
CaAc2ThSb4,47.1198,43.2032,-3.9166
Y2ErIr,25.202,28.3158,3.1139
ScRe4Hg,42.2307,39.4801,-2.7505
InPbSe,40.1937,38.5654,-1.6283
Np(VH3)2,36.3102,30.3356,-5.9746
Li(CoIr)2,13.8627,18.3219,4.4593
Nd2H6Ir2Pd,13.6592,15.2823,1.6231
Ta2Ga2Sb,53.4555,43.144,-10.3115
BeCoPt4,65.532,43.7016,-21.8304
RhI3,26.9972,24.2817,-2.7154
Co2Sn4Ir,19.7004,22.2086,2.5082
NaCoHg2Se,16.0845,13.5022,-2.5823
InNi3O,15.6285,14.4207,-1.2078
ScCuBr2,24.0928,20.6494,-3.4434
HfCo3I,38.4323,30.6282,-7.8041
ScSi3Br,26.7891,20.6003,-6.1889
CaFe2Os,37.1364,29.7222,-7.4142
Ca2ScV4,78.9924,60.7625,-18.2299
LaDyMgTc,43.6629,37.6408,-6.0221
CeScAgRh,27.1916,24.6112,-2.5804
La4Sc2Sb,38.6641,27.199,-11.4651
CuSi2Br,15.4999,10.7302,-4.7697
Rb2CrCuSe,15.438,12.9783,-2.4597
CuSi2Br,15.5524,10.7302,-4.8221
NiB2PO6,3.3054,2.8639,-0.4415
TlAgSn,34.485,33.4613,-1.0237
ScCu2Br,26.1328,20.7978,-5.335
HfNi2B,23.6209,20.3269,-3.294
Rb2SnRhBr6,13.342,12.0415,-1.3005
CaGdSb,19.9319,18.1747,-1.7571
PmSc(SbO4)2,40.2848,36.82,-3.4648
Tl5H3F2,26.822,28.1603,1.3383
InNi2Br,7.646,9.7893,2.1433
Cs5HAu2F,21.7783,22.7623,0.984
InAu,33.6255,36.2604,2.6349
La2PrTm,32.4125,25.3837,-7.0289
PrLuCd4,17.3467,18.9005,1.5537
BC,53.4394,43.3092,-10.1303
Na3MnIn,40.3571,34.9236,-5.4335
SnOsW2,90.2099,76.7403,-13.4696
Zr2Ti2Bi2H,47.1697,41.0307,-6.1389
Sr2Hf2Ge2H,47.3671,36.9696,-10.3974
YHgOs2,27.3707,30.2414,2.8706
LiPrNdO2,19.4556,19.9932,0.5376
Ta2SbPt,51.8562,44.5641,-7.292
VCuI2,45.939,39.1665,-6.7725
Cs2NiTeBr6,15.7657,16.0056,0.2399
Cs2Te2I,27.5826,28.0212,0.4386
TaRhSe4,45.8618,37.1052,-8.7567
SrSc2Bi,15.329,18.0732,2.7442
Sm(YHg4)3,10.532,8.8189,-1.7131
Sm2Tm2Ru3,22.5531,25.175,2.6219
URhSe4,44.7093,39.6602,-5.0491
NaNdGdIn,24.4472,25.3988,0.9516
Rb2NaSn2,11.7705,11.9345,0.1639
Sr2NbAg,47.5116,41.4493,-6.0623
NaPmEr,26.4085,27.1119,0.7034
Cr6Ru2Rh,19.9654,17.0718,-2.8936
IrI3Cl,24.9043,25.2353,0.3309
LiFePbO3,23.9948,22.0451,-1.9497
TlOsSeN2,45.7875,39.1719,-6.6156
Pr12Y3Hg,5.1038,3.6905,-1.4133
Cs2TeI,24.9961,26.1825,1.1864
Mn3CrW2,53.7081,49.1256,-4.5825
RbNpSe4,37.7507,33.3908,-4.3599
K3Hg5Au2,11.3591,11.4796,0.1206
RbGaSe2N,29.1958,23.8717,-5.3241
Al2TlV,42.8338,38.6793,-4.1545
HfSbSe4,57.4278,44.8549,-12.5729
Al2HgPb,12.3587,15.2531,2.8944
Pr3YHg12,1.7054,1.7003,-0.0051
Ni2AgPb,24.5357,26.0846,1.5489
TbCe3Th2N6,18.2974,20.7611,2.4638
KZr2Ni,54.6551,44.7252,-9.93
CeErBi,36.0643,38.7076,2.6433
SbMoSe2,39.5239,32.9374,-6.5866
Sb2MoSe,38.5799,31.5563,-7.0236
Np(CoB3)2,9.1667,12.1332,2.9665
LiNdPN3,8.0765,8.8616,0.7852
SrReAs,33.0098,29.9281,-3.0817
Y3NiHg,64.3383,52.8929,-11.4454
Dy2OsPb,36.8966,41.007,4.1103
Tb11Sm4Sc9,18.3362,20.0835,1.7474
K2AgBi2,29.8925,29.0216,-0.8709
La2TcSb,59.9857,46.1798,-13.8059
Tb11Er4Sc9,19.0782,20.7403,1.6621
Tb11Dy4Sc9,18.7292,20.4978,1.7686
Li12YHg6,5.3048,4.6689,-0.6359
Y(HgI3)2,17.7772,17.7782,0.001
NdYHg2,18.2331,17.0362,-1.1969
Ge2SbSe2,28.0543,22.7958,-5.2585
CaErAg,21.9462,21.3167,-0.6295
Sc2BeAg,13.5882,12.6721,-0.9161
SrZnB2,12.0676,11.2797,-0.7879
SrRe2As,34.3428,33.376,-0.9668
BaGeSe2,25.7619,22.8413,-2.9206
Cr2AsBr,24.7872,22.9122,-1.875
BaLaSb2,34.4934,26.9013,-7.5921
YTaHg2B,48.0354,41.3178,-6.7176
BaLaSb,31.6034,23.2062,-8.3972
LiTlNi,19.2903,21.6107,2.3204
Na2Cd2Pb,27.9069,26.5221,-1.3849
NaMnAs2Br,33.0485,29.1982,-3.8504
NbCr3Os4,42.0183,40.6604,-1.3578
Sr(ReAs)2,29.2121,28.5032,-0.7089
Cs2WNCl6,15.2418,16.2751,1.0333
Nd2ErAu2,34.0417,36.6467,2.6049
SrRe2As,34.78,33.376,-1.404
Th3(CoP)4,31.3157,28.1406,-3.1751
Os2RhI,34.2638,34.2012,-0.0627
Ba2Sb2Se,22.5783,18.428,-4.1503
Sr2ReAs,32.6304,27.3871,-5.2434
Ni3IBr,11.4721,12.1676,0.6955
Sr2ReAs,28.0317,27.3871,-0.6446
ScMnAu3,49.5804,46.6185,-2.9619
Nd6Tl2NF,24.9509,26.7567,1.8058
ScMnAu2,44.3206,42.0297,-2.2909
Ac2DyLu,47.5876,50.8415,3.2539
LaZn2Sb,24.4639,19.3797,-5.0842
AcTb(SiPt)2,48.863,38.1167,-10.7463
FeRePb,46.2476,43.8592,-2.3884
YAg2Hg,25.2281,20.7709,-4.4572
AcThPt2,76.1985,64.017,-12.1815
Nb2MoBr,78.2148,66.5271,-11.6877
TlPSe2N,43.4241,35.6392,-7.785
YAgHg,26.9408,22.2487,-4.6921
LiEu(WO4)2,16.0922,16.7457,0.6534
Pr2Y(AgHg)2,14.507,12.536,-1.971
NaV2ZnFe,66.6262,51.6547,-14.9715
MoOsW3,87.883,74.949,-12.934
CsPm2IrO8,8.6776,10.76,2.0823
YHfAgHg2,45.5889,33.5913,-11.9976
Sc2CuReMo,47.5236,37.4802,-10.0433
CrSb2I,26.5463,21.8815,-4.6648
PrLu2In,20.2976,22.4251,2.1275
CsBi3W,45.7652,47.0811,1.3159
BaYAgHg,35.6954,29.8825,-5.813
Cs2BiW,36.8913,37.9056,1.0144
TcAuBr,51.8756,48.4019,-3.4736
NaTc2Au,60.2843,55.3962,-4.888
CsZr(TlI4)2,33.2008,32.3393,-0.8615
Y3Hg4,21.2593,17.0556,-4.2037
CuOsRh2,36.8522,31.8532,-4.999
Cs2NaTl4Au3,41.7022,41.7322,0.03
Y(Ag2Hg)2,24.9965,19.9835,-5.013
Be2V2Sb,54.5906,43.5499,-11.0406
Sc2InTc,69.2053,60.216,-8.9892
Li3Sc3SbS8,40.6424,32.8047,-7.8377
KRb3Cd,4.3987,4.0153,-0.3834
PrTm3Ir,25.7859,27.7148,1.9289
Y3(Ag2Hg)2,30.4908,23.9527,-6.5381
Pu(CoSi)2,22.1595,21.7489,-0.4106
SrGdTh2,44.0283,47.6427,3.6144
BaNa3Zr,35.7762,28.2627,-7.5135
Tb3DySc7,13.2647,15.1589,1.8941
NaBi2Se,45.5906,42.8512,-2.7393
Bi2Sb2Au3,48.6707,46.7025,-1.9683
NaTeAs2F,29.96,26.1139,-3.8461
Re2MoCl,30.7346,28.9006,-1.834
Co3SbTe,22.9714,20.4249,-2.5465
BaZr2,60.1073,48.6466,-11.4607
Ac(SiPt)2,47.3174,35.1321,-12.1853
GaAsBr2,7.8735,9.1828,1.3093
TbYBeHg,19.1531,18.2883,-0.8648
Co2SiRu,6.9221,7.2378,0.3157
Y2HgCl,51.8313,47.857,-3.9743
AcSmPt3,64.017,49.7798,-14.2372
Ga2Pb2Br,29.4853,28.178,-1.3074
YHgCl,52.3945,51.4334,-0.9611
InP2WS,71.2509,60.6186,-10.6324
P2WS2,79.6718,64.8228,-14.849
Tl2IN2,26.3881,26.0192,-0.3689
ZnTcPt,63.3058,50.1791,-13.1267
GaCuBr3,12.5452,11.5498,-0.9954
WSeN2,23.4523,23.1837,-0.2686
CeDy2Pa,37.0432,41.1658,4.1226
NaFe3Tc,31.1854,26.5799,-4.6055
TlSi2Ir,31.5452,29.0366,-2.5086
KCoCuGe2,21.8534,18.1556,-3.6979
Ba2Te,13.048,13.1229,0.0748
BaAlRh2,29.135,20.2727,-8.8623
AlAgPt4,65.3466,45.3655,-19.9811
Y6HgPd12,26.2136,22.5961,-3.6175
Y2Tm(InHg2)3,15.7777,14.4569,-1.3207
Hf2MoBr,72.3041,53.9198,-18.3843
Li2CaYHg,12.3841,10.3021,-2.0821
CaHg3Se,27.496,21.801,-5.6951
Ac3Si2TePt9,70.6791,51.465,-19.2141
YTlSnHg,31.8573,28.7353,-3.1219
Pa2ZnSn,40.677,43.5674,2.8904
Li2ScV,30.7829,25.7951,-4.9878
AlAg2Pt,38.7196,28.9684,-9.7512
Ac(SiPt4)2,73.223,50.2055,-23.0175
RbY2TlHg,32.0814,26.5155,-5.5659
PaZnFe,30.2258,29.5969,-0.6289
Ti2MoBr,3.7891,7.2844,3.4953
YBe2TlHg,20.769,19.1626,-1.6064
Hf4GaCo,98.2121,71.0913,-27.1207
NiHgPd2,10.4314,12.5065,2.0751
MnHgPd6,25.5469,24.6811,-0.8658
KRh3Se2,42.4193,31.4246,-10.9948
TiNbCl2,38.4739,34.1456,-4.3283
YSi2HgF,28.8041,23.8073,-4.9969
Ac2Si4IrPt3,49.0321,38.0604,-10.9717
GdMnPd4,32.8487,31.8104,-1.0383
NdYHgOs,29.0542,29.1414,0.0873
NbMoBr3,39.1794,33.9796,-5.1998
MoOsBr2,24.7356,23.6418,-1.0939
CuMoCBr2,31.9348,23.0301,-8.9047
AlHg2N,0.5711,1.3896,0.8185
AcLaSiPt,54.4213,42.956,-11.4653
Pm4Nd3ScS8,39.9592,33.6399,-6.3193
BaCo2Si,7.2941,6.052,-1.2421
SnBiPb2,41.7312,44.3275,2.5963
LaHfTi3,43.2513,32.4833,-10.768
BaTeC2,37.0912,28.4039,-8.6873
ZnMo2Br,7.8962,10.9286,3.0324
TaS2Br,40.7626,34.001,-6.7616
Na(PS)2,26.2413,25.5749,-0.6664
BaTeC2,42.6826,28.4039,-14.2787
SrGd2Cu,19.7174,22.1659,2.4485
Y2TaSnHg,40.6411,32.213,-8.4281
U2NO,33.7509,37.4974,3.7465
La3PbO,47.1694,39.6929,-7.4766
Y2CuHgGe,26.2798,21.3938,-4.8859
GdYHgPt,41.5393,32.7183,-8.8211
YPaSnHg,35.997,33.9882,-2.0088
SiHg2Pt,25.9326,17.2201,-8.7125
FeIBr2,12.2527,13.1155,0.8628
CrTeAu2,36.6413,36.3855,-0.2558
Pm3Nd4ScS8,39.948,33.2578,-6.6902
CrTeAu2,36.5448,36.3855,-0.1593
CuAgAsS4,39.3016,29.6827,-9.6189
La2Sc2Tc,65.0137,51.2067,-13.807
Cu(SbAu)2,34.7309,31.9677,-2.7632
CrTeAu2,36.5694,36.3855,-0.1838
Nd4Th3ScS8,47.7602,40.9707,-6.7896
Be2FeBr,15.7737,11.1446,-4.6291
BeFeBr2,16.0118,12.3422,-3.6695
Ba2SrSe,12.2061,11.7029,-0.5031
Ba2NbSn4,31.7992,29.4211,-2.3781
YScHgPb,26.63,25.7425,-0.8875
Sc2TiAu2,20.5817,19.7006,-0.8811
MgZn4Mo,8.6366,9.8896,1.2529
CrTe2Au,35.2025,33.8032,-1.3993
Ca12P6N,20.9067,17.3926,-3.5141
AcSi2Ni5Pt,23.6824,20.4325,-3.25
NdTh2ScS4,51.5905,45.5131,-6.0774
Ge3AsP,16.1833,14.4116,-1.7717
AcNd(SiPt)2,48.5593,37.8008,-10.7585
Rb3TiBi,14.4024,13.6062,-0.7963
GeAsP,14.5139,12.0576,-2.4562
Tc2IrSe,69.4919,61.9546,-7.5373
Tc3MoBr,62.9503,54.4245,-8.5258
ScCoSCl2,28.3741,24.1534,-4.2207
CsLi(SO4)2,16.9572,14.2616,-2.6957
Tb4Pm9Y11,20.1236,21.9174,1.7938
ScPdRhPb,34.6828,30.8146,-3.8682
LiMoBr2,14.9671,14.731,-0.2361
TcIrSe,62.0282,58.0667,-3.9615
YHgSb2Te,36.618,29.1085,-7.5095
BeMo2Rh,24.9075,19.5992,-5.3083
Tm2Zr2Sc3,39.0691,35.8249,-3.2441
La3(PmSc)2,32.6235,25.4015,-7.222
LiLaYHg,26.6045,20.1933,-6.4113
CoSb2TeRu,32.5672,27.525,-5.0422
AsRuN2,25.1859,24.0452,-1.1407
LiYHgPb,26.5985,24.8939,-1.7046
CsSc3Sb,18.6751,16.6655,-2.0096
ZnSe2BrN,31.937,26.018,-5.9189
Pr2Sm7Ho3,20.9381,23.0263,2.0882
CsScSb2,31.537,26.8386,-4.6985
CoSbTe2As,33.7309,28.2034,-5.5275
TiRu3I,21.7844,19.9821,-1.8023
GdPb6,49.8104,50.7155,0.9051
Na2Sr2Tl,25.2132,24.2347,-0.9784
YAgHg2B,46.7876,38.2006,-8.5869
CaCe2Tm,21.6191,24.4927,2.8736
CaTbSc2,17.4673,14.3887,-3.0786
MnSbIr2,57.8835,52.6306,-5.2529
La4Ag(SbN)2,35.9534,25.3619,-10.5915
Ni3AgSe,19.9849,17.8026,-2.1824
InPtN2,28.4738,26.1436,-2.3302
Y2CoHgAu,38.7598,32.7568,-6.003
Sr3NpO8,7.6358,10.1575,2.5217
Ac2Np(Pd4Pt)3,37.4877,33.7913,-3.6964
Ac4Cd(PbN)2,41.9646,44.2257,2.2611
Er4TcSe,24.5592,25.9132,1.354
Ca2LuOsO6,24.3915,23.666,-0.7255
Ge3MoRu,14.0581,14.6109,0.5527
SnGePb2,33.9466,35.2505,1.3039
Sn2AsPd3,15.7677,14.7211,-1.0466
CoCuTeI2,33.3905,28.6668,-4.7237
La2YHgOs,38.9863,29.8851,-9.1013
LaAlMo2,31.4663,24.1224,-7.344
LaAl2Mo,23.2476,18.0915,-5.1561
CoGeSbTe2,30.6854,26.8488,-3.8366
NaAl2Pd,11.7884,12.6953,0.9069
Si2GeTe,20.8749,17.425,-3.4499
Ba4ZrAl,23.8975,18.6798,-5.2176
Pd2PbBr,28.4729,27.8692,-0.6038
Ac8OsPt3Cl4,51.4232,47.115,-4.3082
Tb2Pr3Nd7,17.6876,19.8732,2.1855