Formula,E_hull_DFT (eV/atom),E_hull_ML (eV/atom),Delta (ML - DFT)
Ce2AlAu6,36.8158,37.924,1.1082
TlFe2Pb,31.2025,30.2926,-0.9098
Th2AlAu6,45.9556,47.2623,1.3068
SiBPb3,35.516,34.7523,-0.7637
Zr(ScAl3)2,14.6159,14.0222,-0.5938
Ca2NpN,20.1685,22.5744,2.4059
CrSiMo,13.2731,13.5753,0.3021
CdReW2,63.6328,56.9581,-6.6747
Hf2Be6Nb,47.5027,36.3889,-11.1138
ZnInO2,23.0614,19.1819,-3.8795
CdReW2,63.7079,56.9581,-6.7498
Tm(Be3Nb)2,40.5728,32.0542,-8.5186
PrY3Ag2,16.873,16.5033,-0.3697
Re3AsRh,37.5426,36.7952,-0.7474
Na(IO2)2,26.1346,21.0254,-5.1092
Sb2PbSe,47.8437,42.5846,-5.2591
Sr2PRh2,19.68,16.2229,-3.4571
OsRhAu,46.9073,44.3702,-2.5371
Pu3HgN,43.7552,43.875,0.1197
Pu2GaN,28.0597,30.9466,2.8869
Mo(RhBr)2,23.2842,18.5439,-4.7403
CdCu2SbSe4,33.5509,28.375,-5.1758
Be2PbI6,26.3443,26.7543,0.41
Ac8NiPt3Se4,60.0894,53.6982,-6.3912
CdCu2SbSe,25.6796,22.6489,-3.0307
Be2HgI6,21.0355,21.8841,0.8485
Y3(Tm2Mg)2,20.1477,20.3005,0.1528
Y(ZrRh)2,53.0602,44.605,-8.4552
Sm2ThPd2,24.2394,27.3041,3.0646
Ta4TiOs,32.1033,36.9868,4.8834
CrSiMo2,13.8174,15.185,1.3676
Be6Co2Ni,12.9758,10.6407,-2.3351
Hf2TaBe6,43.4652,31.8419,-11.6232
Be2SnAu6,35.1976,34.7891,-0.4084
SrLa2Pm,35.4774,30.3071,-5.1703
Sc(Be3Nb)2,35.4124,28.4476,-6.9648
Ta(Be3Nb)2,42.9631,34.645,-8.3181
Sm3Si7Ru2,19.1367,14.9456,-4.1911
Be6Fe2Si,18.5503,12.9223,-5.628
Sm(TmPd)2,18.1188,21.5513,3.4325
BaNaZn2Ir,19.8575,17.1254,-2.7321
TaTiW4,32.4776,37.544,5.0663
CdMoBr2,15.0909,16.5522,1.4613
CrB2Ru,0.0,2.932,2.932
Hf(ZrBe3)2,37.6543,31.2172,-6.4371
CeTh,45.9231,49.2173,3.2942
MoAsBr,12.6632,14.4819,1.8187
Be(AgAu3)2,38.7799,38.2551,-0.5248
Be(Al3Cr)2,9.5381,7.8901,-1.648
Hf3BeI,99.0181,72.8016,-26.2165
TmVN2,30.4624,25.0713,-5.3911
HfCrFe,56.7259,40.0753,-16.6507
Ba2YHoS4,44.0226,34.7164,-9.3062
Cs(MgGe)2,7.0707,9.4057,2.3351
YHo2ThS4,43.5397,37.0302,-6.5095
PaVSb,80.2598,69.6645,-10.5954
TiTe4Pt,43.3975,38.3623,-5.0351
Tb(PdPt)2,41.7827,34.5925,-7.1902
TiTcW4,41.7738,43.9956,2.2218
AcPd2Pt,40.7913,37.3904,-3.4009
CaAc2SnPt6,69.0147,54.3583,-14.6564
Tl2AgMo,34.3059,34.5307,0.2248
MgPaBi2N,42.7225,42.3198,-0.4027
Cs2SnPd2,22.9949,22.3175,-0.6774
LiIr,22.1628,25.0847,2.9219
Pa(SnPd)2,27.0789,25.3447,-1.7342
LaMoBr2,17.5325,15.6503,-1.8822
Na6SrLi2,18.0532,15.2451,-2.8081
Tb2Pd2Au,20.8482,24.2316,3.3834
Lu2CdPb,34.4364,36.6731,2.2367
Be(PbI3)2,30.788,31.6784,0.8904
Ag2MoAs,22.7717,20.8476,-1.9241
AcCeSnPt,49.2715,45.3077,-3.9638
MoAsBr2,12.2346,13.8396,1.6049
Sr(HoS2)2,34.4286,18.4464,-15.9822
BaPr2Br6,1.6382,1.4764,-0.1618
AgMoAs2,16.9024,17.0085,0.1061
TiVPt4,81.3211,60.3898,-20.9313
LuScMnFe,55.6308,49.1943,-6.4365
YAlZn2Ag5,27.7751,21.8427,-5.9324
Ru2W,39.7919,35.9441,-3.8478
LiThInI6,21.0006,22.8813,1.8806
CsRbNb2,75.4229,60.0362,-15.3867
CrSiOs2,27.0389,28.9458,1.9069
RbTl(ZnIn2)2,18.4532,19.1126,0.6594
ScH8Pd3Ru2,7.585,8.0353,0.4503
Th2TePd2,34.5099,37.7879,3.278
LiAlTc2,50.1684,41.7563,-8.412
SiAs2,20.9754,18.1062,-2.8692
YZrRh2,51.9918,42.6381,-9.3537
Li2AlTc2,35.2654,29.8521,-5.4133
SmY2Ho4Sc,23.7002,23.7219,0.0217
K3(CuI2)2,12.2078,12.4717,0.2638
LiCeHo,14.5693,17.6782,3.1089
Ca2AlSi2,16.3695,13.2528,-3.1167
Cd2Ag2Pd,23.6088,21.9161,-1.6927
CaAl2Si,16.7756,15.0022,-1.7735
NaCa(AlSi)2,24.2601,20.0765,-4.1836
Hf2RhI,83.3574,59.6092,-23.7482
Sc(CdPb)2,26.7398,28.5595,1.8196
Y(CuGe)2,14.4076,12.3986,-2.009
La3AsPb,42.8683,35.0993,-7.769
MoBrF3,11.9281,12.0563,0.1282
CsNd(SO4)2,12.9771,11.8956,-1.0815
HgMoBr2,6.5561,7.9127,1.3565
La2Y3Os2,34.2104,30.9326,-3.2778
Ti4HgMo,5.874,9.1292,3.2552
Re2Rh,43.1332,42.6212,-0.512
AlCuSi,8.85,16.3115,7.4615
Sr2Tl2As,28.5726,27.0698,-1.5029
Rb2Ca2W,10.8635,9.2298,-1.6337
NiSbPb3,46.6805,43.0176,-3.6629
GaTcBi2,53.4003,50.7629,-2.6374
ZrTiNb4,113.0438,90.4021,-22.6417
RbTlZn3,15.4292,15.7512,0.322
Rb2TlZn,15.6023,15.6533,0.051
Li2TaP,15.7273,15.9659,0.2386
Tl2PdAu2,39.4325,41.2039,1.7714
TmSc2PaBi4,40.2973,42.1719,1.8747
CdBi3N,38.6121,38.9146,0.3025
Ba2Te2Br,13.6186,14.0863,0.4677
CrSiPb2,33.1155,31.9256,-1.1899
LaZrBr,53.8802,44.2851,-9.5952
Cd2TcTe,43.7949,39.0993,-4.6956
Be3Ir,5.3198,9.8128,4.4929
Ca2InAsI,12.7382,13.3801,0.6419
TiTc2N,38.1486,36.0626,-2.0859
AlMoPt2,46.8824,34.8393,-12.0431
Ba2TeBr,11.7999,14.2209,2.421
HfTi4Tl,35.819,31.1577,-4.6613
CuSbAs2,18.3713,18.0255,-0.3458
LiRe2Ir,31.4081,35.0806,3.6725
YHo2Er4Sc,25.2895,26.0661,0.7767
LiTaRh,21.7693,23.3105,1.5412
KTcSe,52.3814,43.0254,-9.356
Ac2CdCu4Ge3,19.8854,21.3413,1.4559
Y2ZrRh,43.4474,38.022,-5.4254
YCoTe2I,41.1533,35.9203,-5.233
Sb3MoRu,35.5604,30.8085,-4.7519
Pr2GdBi,18.1645,20.1551,1.9906
Ac2PdI2,37.4252,39.914,2.4888
TlAsPb2,38.2745,40.2322,1.9578
GdBiAu,43.1513,45.4687,2.3173
BaTcN3,10.9873,9.2412,-1.7461
TlCr3Sb,25.8339,23.0169,-2.8171
LaTaMo2,30.0604,30.1359,0.0755
LaTaMo2,30.0578,30.1359,0.0782
CsLiGe2,7.9389,9.4753,1.5363
EuZnTeO,25.9916,22.5993,-3.3923
BaSr2PtO5,11.4571,9.9077,-1.5494
Ta4TiNb,48.9519,48.3502,-0.6017
Ti4TcPd,21.3877,22.121,0.7333
Nb2AsN,64.6606,53.3746,-11.286
Th2PdPt2,57.1605,50.5302,-6.6303
LaTa2Mo,35.4021,35.9685,0.5663
TiPd4Au,18.6034,17.6959,-0.9075
TiNb4Sb,102.635,83.1664,-19.4686
Be7Pt,11.0474,9.5336,-1.5138
Sm4P3,14.5024,18.6948,4.1924
Be7Re,5.0253,7.31,2.2847
VAgI4,38.7078,33.761,-4.9468
Y2ZrRh,43.552,38.022,-5.5299
Tb2PdPt2,29.8005,23.9878,-5.8127
Sn2PdPt2,49.6147,38.384,-11.2306
Cd(BiTe)2,42.716,41.8764,-0.8395
Sr2BeAu6,36.0992,35.9054,-0.1938
U6Si,62.2556,62.9707,0.7151
CrReSi,21.421,22.6854,1.2644
Re2OsPb,44.6039,48.1958,3.5919
CrReSi,21.6518,22.6854,1.0336
Hf2CrTc,97.0831,72.4604,-24.6228
HfCr3Tc,53.7089,40.6631,-13.0458
Re2OsPb,44.1968,48.1958,3.999
Ac2Zn4Pt3Pb,47.4281,40.6168,-6.8113
Cs(HgPd)2,9.2326,10.8186,1.586
AcTl4Pb,53.2105,54.4305,1.22
Yb4P2O,24.3641,23.9736,-0.3905
BaSr2Pt,29.0205,24.034,-4.9865
K2PdI4,18.1815,18.2052,0.0237
Tm4HgPb,29.0812,31.2687,2.1875
BaSc3Ag,9.5572,9.4335,-0.1237
AcCeEu2,36.6665,38.1799,1.5133
CrRe2Si,26.1666,27.9015,1.7349
AcCeEu,39.3641,41.5741,2.21
LaTcS2N,52.6182,39.272,-13.3462
Y5(HoSc)2,12.2688,12.1333,-0.1356
YScHgAu,25.103,24.6161,-0.4869
Ru3AuBr,27.4547,26.4315,-1.0232
Zn2Sn2Pb,19.2966,21.1529,1.8562
PuVI4,48.0824,44.3328,-3.7496
CsRb2Ba,7.1281,7.0349,-0.0933
ZnFeSe2,28.1156,23.0719,-5.0437
Tm4IrPb,30.2368,33.8035,3.5667
Tm4IrPt,41.7538,39.6099,-2.1439
RbGaSi,5.2579,5.127,-0.1309
CrRe2Si,26.25,27.9015,1.6515
Ac6CoIrPt2,61.2679,57.0156,-4.2523
AcPrPt2,52.1851,42.1073,-10.0778
Sr2AlSiPb,29.028,26.1354,-2.8927
Ac6Co(PtI)2,55.3521,51.3758,-3.9763
BeNi3,4.5004,7.8437,3.3433
NaGd2O,19.904,20.7142,0.8102
Rb3PI6,16.6448,15.3538,-1.2911
CrSiRu,17.7012,15.2568,-2.4444
ZnFeSe2,28.1363,23.0719,-5.0645
CrSiRu,17.7928,15.2568,-2.536
Y2C,34.2561,31.951,-2.3051
Ru2WSe,49.5567,33.9057,-15.651
Ru2WSe,49.4376,33.9057,-15.5319
Ta2NiSe,31.9744,33.0688,1.0943
TbNi2Au,21.1974,23.5736,2.3762
PmSbC,37.0076,30.8959,-6.1117
SrCrSi,28.1025,19.9657,-8.1368
Ac2PtPb,67.1329,63.1219,-4.011
YHo(PaAs2)2,25.8556,28.63,2.7743
Y3CS,31.0762,25.573,-5.5032
Ac3PtPb,66.5755,62.5391,-4.0364
AlVF2,46.6336,35.8052,-10.8284
Li2Si2P,12.7552,9.9825,-2.7727
Hf(BeRu)2,27.9288,24.0131,-3.9157
Cs2Tl2Pd,33.49,34.6171,1.1272
Ac3PtPb2,59.2358,57.7106,-1.5253
Ta3AlN,12.0531,20.3124,8.2593
NpCrN3,19.9963,21.1324,1.1361
Ac2InPt6Pb,73.7308,59.1164,-14.6144
AcCdPt3Pb,62.2086,51.6619,-10.5467
Ac3IrPtPb,56.7627,55.1439,-1.6188
Pm2Hg2Au,18.7797,20.9192,2.1394
USbAuN,32.2389,34.8822,2.6433
YC3,59.7226,42.2438,-17.4788
Sr6IrBr2,16.2317,14.525,-1.7067
Sr2GaSi,23.3191,18.766,-4.5531
Pr2NdPd2,3.9455,7.2837,3.3382
NdY(GaRu)2,17.9036,16.8773,-1.0263
YC,39.7723,10.3083,-29.464
TaNiSe2,34.6793,33.681,-0.9983
Ba2ZnSb,10.1129,11.2954,1.1825
TmPuAu4,48.0088,49.7433,1.7344
Tm4TlRe,29.7384,34.1308,4.3924
TmPaAu4,47.2594,49.384,2.1246
K2CdHg4,5.9072,5.7802,-0.127
CrSiRu,17.5895,15.2568,-2.3327
Rb2AgTe2,20.6188,18.0822,-2.5367
Ba2Zn2Sb,11.7558,11.8856,0.1298
Rb2Ag2Te,19.0484,15.9382,-3.1102
TmThHg4,15.6685,17.2915,1.623
YC,0.0,10.3083,10.3083
BaZn2Sb,14.7457,14.3592,-0.3865
V4CrAu,87.3715,70.0486,-17.3229
In4Ru2Au,22.8128,24.5663,1.7535
KZr2W,62.5933,56.0565,-6.5368
GaSiTe2,27.0648,25.4877,-1.577
AcLuPt2,68.1152,57.4999,-10.6153
LuAlSn,9.9049,14.539,4.6341
Li2Re,13.8303,16.677,2.8467
YC,48.3982,10.3083,-38.0899
NaYO2,19.1902,16.4868,-2.7033
SiGe2Ru,10.4404,10.4002,-0.0402
TlIn5Ag3,27.1451,25.2628,-1.8823
V4CrGa,88.6616,69.3396,-19.322
Ag2WBr6,29.8119,24.7372,-5.0747
Co2ReAu,26.1886,28.6886,2.4999
CsCdIn(MoO4)3,15.3112,13.4807,-1.8305
Ag(SbBr3)2,27.6958,24.3771,-3.3188
RbHf3Rh,98.8182,68.912,-29.9062
TaNiSe3,30.7449,26.8356,-3.9093
Na2YC,36.9466,30.1723,-6.7743
Y2C2F,37.1761,28.9828,-8.1934
Cs3La(SeO4)3,10.9051,10.222,-0.6832
TmTh(ScBi2)2,39.9981,41.8675,1.8694
TiMn2N,51.9551,43.4327,-8.5224
InMo3Br,18.0353,18.7923,0.7569
Rb3HfRh,41.6431,28.3812,-13.2619
CrSiRu2,20.5218,16.6242,-3.8976
PmCd4Sb,24.2874,24.209,-0.0784
Hf2InN,76.0329,57.2409,-18.7919
Cs(WO3)4,0.0,2.7793,2.7793
HoSiAu,13.6877,17.4318,3.7441
LiIrRu,19.1382,19.2496,0.1114
Ti(TeRu)2,18.1894,19.9124,1.723
LiI,7.6472,6.9076,-0.7396
Ti8Rh2N3,9.9826,10.1314,0.1488
CuOs2Ru,27.4161,32.8725,5.4563
CrSiRu2,20.4869,16.6242,-3.8627
Pm(ErAu)2,30.1535,33.3425,3.189
SiPOsRuC,32.3596,29.0822,-3.2774
CuOsRu2,21.6833,24.8438,3.1604
AcLuPt,61.815,55.6232,-6.1917
YCO4,15.8343,11.3281,-4.5062
SrZn3Ir,10.2239,10.9953,0.7714
CuOs3Ru,32.5954,34.0334,1.4379
Al2SiPd2,13.9333,14.6312,0.698
Sr2Al4Ga3Cu,8.4024,8.0364,-0.366
Co2NiN,71.0989,59.2407,-11.8582
GePPt5,65.4735,47.6481,-17.8254
BaSrAu,19.7788,21.5761,1.7973
Ho(NbB3)2,34.3393,29.8573,-4.4819
In2SiPb,27.0222,26.5018,-0.5204
LiRuRh,18.3686,15.1069,-3.2617
Ca2TiI2,12.1471,12.8693,0.7222
BaOsPb2,32.5349,39.0464,6.5115
BaOsPb,32.5454,34.9791,2.4337
Os3RuC,42.7541,41.1464,-1.6076
CrSiSb2,28.9772,24.1998,-4.7774
PmTh2UP4,28.5933,30.5626,1.9693
BaOsPb2,37.5404,39.0464,1.506
NaY,17.7163,16.9534,-0.763
Na2CaIrI,30.6507,23.9691,-6.6816
BaOs2Pb,34.8258,36.8469,2.0211
AcCd3Ag5,30.9344,27.6851,-3.2493
PuPaSe2N,36.2226,35.431,-0.7916
TaMnBe2,39.9125,34.4489,-5.4636
TiCdCuRh,20.2604,18.3394,-1.921
PuThN,34.7218,37.1102,2.3884
La6Pm2Tm3,41.0779,34.5411,-6.5369
CrSiSe,24.9544,19.9619,-4.9925
Cs6Ge2PtO8,14.4946,13.2283,-1.2663
KGaSi,8.6535,9.5169,0.8635
K2CaCo,13.0595,11.113,-1.9465
Rb2Si2Sb,12.4844,9.3152,-3.1692
YC,41.2141,10.3083,-30.9058
La6CePm2Ho,41.4915,33.2126,-8.2789
TlAg3Pb5,45.3825,43.4711,-1.9115
CrSiSe2,30.5422,22.467,-8.0752
V4GaRe,93.6922,75.3963,-18.2959
NaVSe2N,51.453,39.1895,-12.2635
Ac(PmIr)2,33.0205,36.945,3.9245
CeTcN,39.1195,35.424,-3.6955
YAg2SO6,20.587,18.3906,-2.1964
ZnFeTc2,50.4659,42.4108,-8.0551
CdSbPb,36.112,35.2545,-0.8575
Ti2RuPb,12.8189,18.7178,5.8989
Cs4Ba(AsO3)6,0.0,1.3748,1.3748
V4GaTc,102.5325,80.7792,-21.7533
LaYInAg,29.8908,25.4968,-4.394
TaMnBe2,39.7502,34.4489,-5.3013
V4GeAs,89.1134,69.9702,-19.1432
Pm2Ir2Pb,30.4373,34.3636,3.9263
CrSiSe2,30.5492,22.467,-8.0822
Ce(PdPt)2,41.4381,33.5304,-7.9077
AlRe2W,30.2967,35.7052,5.4085
TaMnBe2,39.7538,34.4489,-5.3049
Ac2GeIrPt6,71.138,56.3674,-14.7707
SmCuPb,27.7902,30.2417,2.4515
Rb3ZnCr,6.842,6.2747,-0.5673
BiRu3W,53.1056,42.1651,-10.9405
MnV4Os,109.0705,87.28,-21.7905
Rb2ZnCr,5.2437,5.8019,0.5582
SrZr,23.6744,32.0889,8.4144
La6Sm2Tm3,41.1197,34.5962,-6.5235
AcPmIrPt,54.7079,50.6079,-4.1
Ag3Bi5Pb,46.7588,44.9773,-1.7815
ReWS3,50.9913,41.6943,-9.2971
CrSiSe2,30.2966,22.467,-7.8296
Ac2Al4Ir3Pt,35.2108,34.5609,-0.6499
Pm2PaOs2,31.2662,38.8844,7.6183
V4OsRu,95.1644,77.2023,-17.9621
V4SbMo,95.8301,75.471,-20.3591
TaCoNi2Se,38.4321,30.901,-7.5311
ZnFeTe2,25.3079,22.7761,-2.5318
Mo2IrBr,27.8217,24.9331,-2.8886
V4TcMo,94.0222,75.36,-18.6622
Pm2PtAu2,40.5001,38.5839,-1.9162
Hf(TaPd4)2,32.135,29.8376,-2.2973
Y2C,35.345,31.951,-3.3939
CuI3,17.0782,18.0562,0.9781
Y3C,34.9178,30.9115,-4.0063
DyNp2PaAs4,33.6448,35.5253,1.8804
SmTaN2,14.5643,18.8688,4.3045
MnAgPb3,58.1189,53.112,-5.0068
KBaI2,13.1758,14.1742,0.9984
SrSiIr,19.8035,18.2495,-1.554
VGeAs2,33.9789,29.2869,-4.6919
BeCu3Cl,9.4721,7.6038,-1.8683
La2CePrNd2,24.285,22.0315,-2.2535
V3GeAs,81.8039,63.6049,-18.1991
SiSb2Au,33.931,30.8387,-3.0923
CsPt2Se,57.9697,43.9017,-14.0681
V4GeAs3,62.4493,48.1957,-14.2536
VCuBr4,28.2742,24.2011,-4.0732
ZnOsPt2,51.7818,42.8722,-8.9096
BaSr2Zr,31.7324,28.7472,-2.9852
Sr2CrSi,25.6184,18.298,-7.3204
KZn3Te,16.1713,15.4321,-0.7393
Ac2PmAu2,44.5543,47.0294,2.4751
MnRu2Au,44.9588,42.3306,-2.6282
Pd(PbBr3)2,24.1684,23.4234,-0.7451
MnRuAu2,52.7724,49.4088,-3.3635
Co2ReOs,23.6211,28.1515,4.5304
TaMn2Be,61.8961,52.623,-9.2731
SrZr,51.5651,32.0889,-19.4762
Ca3WI,16.3419,17.0414,0.6995
Ce2PrSm,17.6344,20.3816,2.7472
NaCaLa2Os,34.9482,29.1542,-5.7941
YC2,52.6217,39.6649,-12.9568
BaSrZr2,53.2134,46.688,-6.5254
Ac3SnB2Pt9,67.3315,52.0946,-15.2368
Tb2Pm2Sm,25.5735,28.6319,3.0584
Pm2SmTl2,31.3626,33.7975,2.4349
SrSe,30.2028,26.1662,-4.0367
HgSbPd2,17.3421,17.1521,-0.19
Li2ReIr,21.1811,25.4626,4.2815
LiScRe2,43.5038,37.9185,-5.5853
Pr2TmPd2,6.664,7.9357,1.2717
VCr4Mo,20.4023,18.2416,-2.1608
RuRhBr2,33.7963,28.0871,-5.7092
NaSiAu2,33.4897,31.8325,-1.6572
Zn2RuRh2,29.676,24.1755,-5.5005
Ta2MnBe,46.0652,43.3458,-2.7194
SiAgAu2,35.2953,33.0359,-2.2594
TaNiSeN2,26.2981,22.5896,-3.7086
Li2(AuI2)3,22.6838,22.9891,0.3053
BaYMn2,72.9903,59.95,-13.0403
Ta4Ga(Te3Se)2,51.054,44.138,-6.916
TiRh2N,18.4603,14.9761,-3.4842
SiI2,17.4763,16.529,-0.9473
Be2CuCl,10.1526,7.3607,-2.7918
BeHgTe2,21.384,20.6739,-0.7102
SiAg2Au,31.3223,28.4556,-2.8667
Tl2Bi2Sb,51.3483,50.894,-0.4543
NaYC,39.3874,33.7006,-5.6868
TlReRu2,31.6574,34.8092,3.1517
Sr2SnS2,27.074,21.7859,-5.2881
NaGd2Ga,22.7239,23.7759,1.052
RhPbBr2,38.4291,33.2941,-5.135
Sc2Ti2Co,25.0265,21.2255,-3.801
Ru2RhBr,39.7525,33.2924,-6.4601
Sn(BiN)2,29.8475,29.0894,-0.7581
AuN,5.4369,8.1048,2.6679
Ru2RhBr,39.7603,33.2924,-6.4679
Cu2Ni,6.5825,9.2877,2.7052
Hf3Sc,109.0642,77.9178,-31.1465
CrSiTe2,27.6232,24.553,-3.0703
RuRhBr,41.016,32.8531,-8.163
CdAgOs,31.9848,31.1451,-0.8398
CdAgOs,31.2638,31.1451,-0.1188
Sb(Au2N)2,34.3766,34.7341,0.3575
MnPRuCN,56.7538,44.8916,-11.8622
CdAgOs2,34.6805,35.5637,0.8832
LiMo2Se,13.4723,14.3716,0.8994
MnPRuCN,56.4917,44.8916,-11.6001
Cd2AgOs,28.2817,28.3212,0.0395
NaCrSiBr2,25.7468,20.8783,-4.8685
Sr2ZnIn2Pd5,11.7346,14.0339,2.2994
Hf3(ZnAg)4,53.2958,40.0767,-13.2192
Sc2TaPSe,80.7315,63.4652,-17.2664
Ti5Fe2CuRh2,13.4423,11.4316,-2.0107
TmTiN3,0.0,4.5962,4.5962
VZn4Cu,27.8299,23.7918,-4.0381
Ca(YZr)2,43.9511,38.1384,-5.8127
Pr6Sn2C,2.1981,2.7813,0.5832
KPaPt4,72.3797,56.7397,-15.64
HfFeTe2Au,55.9327,46.3168,-9.6158
TlCrSi,25.7827,24.8758,-0.9069
RbPu2Br6,22.3157,22.7635,0.4478
CrSiTe2,27.4039,24.553,-2.8509
RbNd2Br6,11.6528,12.0563,0.4035
ZrTiRu2,35.3147,33.1721,-2.1425
VGaI4,37.7593,33.4831,-4.2762
Li(NbSi)2,66.8733,52.928,-13.9453
K2Ag2Br5,15.1429,13.4133,-1.7296
Re3Ni,39.852,34.1691,-5.6828
Pm(ThPt)2,58.9293,52.3231,-6.6061
YFeRh2,22.7993,18.4117,-4.3876
Pr2NiAg,9.4172,7.8296,-1.5876
Co2TeRu,17.9928,20.0892,2.0963
AgTe2,38.8739,35.1069,-3.767
Ac2PmSm2,36.4568,39.7793,3.3225
Cu3NiPbSe4,30.0699,26.7395,-3.3304
Cu2SiW,17.9669,18.3407,0.3738
LiHg4,0.8323,0.9503,0.118
ZnCo3N,35.8722,40.3525,4.4803
Hf2NbB6,47.1974,36.475,-10.7224
TcMo2W,30.8447,34.8605,4.0158
Cu2SiW,17.7948,18.3407,0.5459
SrZr3,77.5735,66.4941,-11.0793
LaTlPb2,51.5618,49.9509,-1.6109
Zn4Pt4Pb3,49.473,41.3832,-8.0899
Li2TlRe,23.518,25.1624,1.6444
PuTiRh4,18.0915,14.3603,-3.7312
Lu2TcRu,43.8337,42.2726,-1.5611
NiRu2Cl,11.1003,13.9642,2.8639
Ta(B3Mo)2,7.4995,10.923,3.4235
OsRu2Se,31.0512,26.503,-4.5483
Ba2SrZr,28.486,25.1597,-3.3263
Gd3(SiNi)4,16.7946,14.3824,-2.4122
Np2AuN,46.8482,49.6075,2.7593
Y3Ag3PdO8,27.97,23.3475,-4.6225
CsSb(AsO4)2,12.0263,12.0709,0.0446
Nd(TmB3)2,9.4893,12.0925,2.6032
Tb2NdPd2,16.4353,19.8681,3.4328
Pm(HfB3)2,34.4125,27.1821,-7.2304
La2Ga2Ru,23.1802,17.9586,-5.2216
Sc3TiI,9.2818,10.6921,1.4103
InSnBi2,34.0652,36.835,2.7699
SiTcNiRh,40.3737,33.1665,-7.2072
NdMg(H4Rh)2,11.2728,9.5167,-1.7561
Pr(TmB3)2,6.2474,9.0151,2.7677
CdCo2Rh,20.4098,18.7223,-1.6874
MnSiNiRh,67.4129,56.5911,-10.8218
TlSbC3,58.192,43.5197,-14.6723
Y4C3,49.6821,40.4871,-9.195
Ta2SiNi,27.7507,26.1888,-1.5618
Cs3PO3F2,11.6763,10.0896,-1.5867
Cs2Ga2As2O7,15.8277,14.5673,-1.2604
Ag(BiPd)2,35.0663,35.5696,0.5033
EuTlInPb,37.6001,39.3408,1.7407
Tm(ScB3)2,4.2147,6.5619,2.3472
YThGaAg,30.1637,30.5851,0.4213
Ac6Tl3IrPt2,62.8427,59.9358,-2.9069
Tb2SmB6,8.6535,11.2146,2.5611
UGaNi,13.4579,19.4269,5.969
KMnIr2,50.4933,46.7594,-3.7339
BeTlRh2,37.5257,31.5988,-5.9269
YbCu2O3,1.5954,4.5858,2.9904
Cu2SiW,17.9313,18.3407,0.4094
Ac3BiIrPt,56.8049,55.2207,-1.5841
Sm(ThB3)2,17.4701,19.6462,2.1761
NaLaTc,56.8676,45.0236,-11.844
TlInGa2,19.3685,21.7606,2.3921
TaOsSe2,43.9908,41.0612,-2.9296
Tb2ThB6,13.2041,15.5365,2.3324
U2TaB6,19.8791,22.9327,3.0536
Pr2TmPb2,19.9155,22.8824,2.9669
NiSbCl,24.4638,19.2617,-5.2021
Ta2VB6,32.6707,28.1087,-4.562
TiOsAu2N,51.9705,42.8866,-9.0839
Y3(SO)2,41.506,33.7552,-7.7509
Tl2InGa2,25.2638,26.7987,1.5348
Zn2CrSi,11.593,9.5166,-2.0763
Hf2TcB6,41.9963,32.4613,-9.535
FeSe7,42.9284,34.0618,-8.8667
YHoHgPb,32.3837,31.5381,-0.8457
Ti2VB6,14.9209,14.7113,-0.2096
ZrCrSi,41.128,34.7191,-6.409
MoOsRu,29.0338,29.9844,0.9506
GdGe2Ir,24.9242,25.3786,0.4544
RbBiW3,40.116,39.1073,-1.0087
Pr2Si2Ni15,8.8499,8.6016,-0.2483
NaTm(CuBi)2,29.3493,30.6753,1.326
Sm3Sc,20.0654,22.2249,2.1594
U3Au4,56.3157,58.8131,2.4974
Sc8Sn2Pb,17.7335,16.2657,-1.4678
Tm2InGa2,14.8516,18.0539,3.2023
YMn2H5,26.817,22.5127,-4.3043
ZrCrSi,40.8369,34.7191,-6.1178
Ti4Rh2N,7.5239,7.2637,-0.2602
CsNaSr8(BO3)6,5.0869,5.4221,0.3351
U(B3W)2,16.3526,20.0637,3.7111
TbTm3Sb2,29.0244,28.948,-0.0764
Zr2CrSi,54.9796,46.7272,-8.2524
Li2IrRh,23.3808,21.4077,-1.9731
Si2PbAu2,31.764,30.9561,-0.8079
Pu(ZrB3)2,29.572,28.1582,-1.4138
Zn2FeOs,23.6143,20.3008,-3.3134
Na2TiTl2,33.4255,31.2482,-2.1773
Tl(InGa)6,16.9906,17.6198,0.6292
Zr(TcB3)2,31.5824,28.2599,-3.3226
Sm(ZrB3)2,24.3201,22.8992,-1.4209
Si2Pd,10.9774,8.0675,-2.9098
CuTcSb,30.1529,26.1715,-3.9814
RbCoSb2,25.608,22.051,-3.557
YSF,9.2175,8.8383,-0.3791
Li5Pr3Br12,3.4383,2.7925,-0.6458
Si2NiC,17.9189,13.1231,-4.7958
La(PaB3)2,20.6745,21.427,0.7524
Co2OsRh,26.1248,25.4822,-0.6425
NpSi3,28.9686,25.1482,-3.8204
Np2Si2Ru2C,40.9413,36.7779,-4.1634
LaBePt,46.3037,34.9513,-11.3524
CuAgAu,25.0186,28.6455,3.627
CaScSi2As,32.0599,26.1914,-5.8685
Y(S3Cl)2,55.5263,45.6019,-9.9245
NaPr2PbO5,7.8885,5.2738,-2.6147
IO,0.0,32.1028,32.1028
Ba(Ac3Ho)2,49.7786,50.3951,0.6165
Cu2(AgAu)3,31.1607,29.5276,-1.6331
YCS2Cl,67.7166,54.7123,-13.0043
NaEuTl,34.4055,33.9786,-0.4269
PaSnPb,42.0541,44.8561,2.802
ScCo2AsRu,20.3351,17.1478,-3.1873
GaTc2C,55.9215,46.5276,-9.3939
Nb2PPd,75.8126,63.2789,-12.5337
Cs2Na2Pr4Ta2O13,8.733,5.2825,-3.4505
Np2Si,19.7483,23.5411,3.7929
YCO,39.7814,32.4979,-7.2835
SiOs2Au,30.1231,32.5366,2.4134
B(Ru3W)2,45.3542,33.9242,-11.43
Ti4TlPb,20.575,23.5556,2.9806
Rb(GeSb)3,20.5821,16.8997,-3.6824
Cd2HgPd2,14.489,16.0145,1.5255
Ni2RuAu,14.2172,19.4414,5.2241
ErSbRh,40.1443,35.3753,-4.7689
Ti4VOs,31.5468,30.2172,-1.3296
Pm(CdPd)2,19.2008,21.2413,2.0405
Ti4VTc,40.1321,35.3247,-4.8074
Sm2BPt6,64.4745,48.3143,-16.1603
KNaBi2Se,39.647,34.9105,-4.7364
SiNiAsP2,20.8652,17.7569,-3.1083
Ti4ReW,6.6927,13.3948,6.7021
KNaCd2Pd,18.4027,17.831,-0.5718
Ni3Se2,17.695,16.4981,-1.197
FeNi,47.3876,7.8163,-39.5713
SrLiNb,48.2098,41.5373,-6.6724
Ti4ZnBi,13.6408,16.2593,2.6185
Si2As,27.4358,20.9583,-6.4775
NiPbC3,51.7947,38.882,-12.9127
Y4CS2O,41.1017,33.4117,-7.69
ZrTc2Au,75.4443,66.1139,-9.3304
In2GaCu,15.4173,15.3325,-0.0848
Zr2TcAu,83.9218,73.9463,-9.9756
TmZnPtRh,43.3439,35.0477,-8.2962
Cd3InC,28.3249,24.6173,-3.7076
Nd4Er3Pu,32.4974,34.4564,1.9589
ZrTc2Au,82.7199,66.1139,-16.606
Sc(AsRu)2,23.1622,18.9162,-4.246
U2B6Mo,18.0936,19.927,1.8334
GdCuGe,6.1485,10.5306,4.3821
K2Ba2Ca,4.787,5.158,0.371
Sm2Y2Th3,39.5345,42.0634,2.5289
MnP2Au,32.8174,30.4348,-2.3826
Sm12Hg3N5,0.0,1.1138,1.1138
Cs2RbSrBr5,12.7665,12.7681,0.0016
Ac2NdUN5,25.1714,25.5934,0.422
Zr3Ni,67.2843,58.2573,-9.027
UCuP,31.9487,32.256,0.3073
Ag2BPt6,66.9621,49.2983,-17.6639
Mn2ZnRh,56.8924,46.6096,-10.2828
SrReTc3,76.3023,60.7126,-15.5897
Sm2TcN4,20.0846,19.6816,-0.403
SiHgPd2,8.4497,9.5554,1.1058
LiSiBr2,15.6723,13.9575,-1.7148
BeGeCl3,5.2161,4.7787,-0.4374
NaSmGe,11.3029,13.9812,2.6783