Formula,E_hull_DFT (eV/atom),E_hull_ML (eV/atom),Delta (ML - DFT)
Y2TmHgN,40.2343,33.509,-6.7253
Pr2Nd3Ho2,17.2979,19.7973,2.4994
Pr2Nd3Hg2,8.9063,11.3043,2.398
InP2PdCl,12.8079,12.2766,-0.5313
BeInBr2,10.4833,11.953,1.4697
BeIn2Br,13.3484,14.6403,1.292
SrY2BiC,42.6868,35.3596,-7.3272
KSc3Br,8.8282,8.4542,-0.374
La11Nd4Ho9,38.4764,30.8747,-7.6017
La11Nd4Er9,38.8745,31.2289,-7.6457
Y2Sn2Hg,25.6256,20.5425,-5.0832
BeIn2Br,12.8682,14.6403,1.7722
KLiSnTe2,19.4191,19.1458,-0.2733
Na2TePb2,36.3913,34.5842,-1.8072
HfZrS4,69.2817,52.4655,-16.8162
Eu3(AsPd)4,16.8898,18.4495,1.5597
ZrNbS4,76.6459,57.9115,-18.7344
CaYNi2Hg,39.2954,32.0314,-7.264
BaNaZnIn,12.856,12.8368,-0.0192
BeSeN2,35.7393,29.7758,-5.9635
LaScPdPb,35.3958,30.751,-4.6449
NaThRh4,47.407,37.913,-9.4939
ZrUSe3,53.9577,45.5407,-8.4171
YbCuSeO,16.241,17.4669,1.2259
K3ZnI6,14.6996,14.9725,0.2729
Na3MnIn3Br8,21.0054,19.8612,-1.1442
Na2ZrPb2,47.0934,42.0822,-5.0112
ZnTcI2,37.474,33.7917,-3.6822
KVSn2Ge,38.9991,33.3293,-5.6698
Tm6CrSn2,25.7162,27.7106,1.9945
NaPm(YHg2)2,18.3125,15.7193,-2.5932
NaZr3Pb,75.6009,61.7992,-13.8017
Ac2OsPt,64.7919,60.2472,-4.5447
YHgTe2,28.7068,28.8309,0.1241
Y2GaMo,20.699,15.296,-5.403
Y2HgTe,35.4718,30.5253,-4.9465
In2Pb2Br,34.1281,32.7478,-1.3803
Y2HgTe,35.1012,30.5253,-4.5759
Sc2SBr,29.1147,27.2361,-1.8786
YHgTe2,32.9267,28.8309,-4.0959
Sr3Cd(CuO3)2,5.9854,6.2735,0.288
KGaAgSn2,19.0544,17.975,-1.0794
HfPS2N,65.3988,46.7956,-18.6031
LaY2ReHg,39.472,31.6053,-7.8667
Pr2PbC,25.8091,23.5489,-2.2602
CsPa2BeO8,11.9169,14.0926,2.1756
Na2YHgRu,23.8957,19.9614,-3.9343
Y3AgHg2,25.8157,20.0651,-5.7506
Y4Ni2Hg5,48.8437,41.1869,-7.6568
CaY3Hg4,15.6508,12.4323,-3.2185
Sr2Mn3,60.0085,49.2969,-10.7116
TaReN2,82.4666,81.8263,-0.6403
MnNiIr2,73.5299,69.3327,-4.1971
Y4SiHgC,36.3726,27.2981,-9.0745
Os2RuN,41.2306,41.7796,0.549
NiS2,25.0799,16.9356,-8.1443
GaRe2Os,32.6251,37.7792,5.1541
K2HoSnSe4,32.0034,27.447,-4.5564
Li7Sb2S,4.205,2.4859,-1.7191
YErAlHg,26.2036,23.0362,-3.1674
CsTlF3,6.735,8.6796,1.9445
Ca2SbRh2,26.0944,18.9584,-7.136
La4Dy11Ho9,31.8235,30.2273,-1.5962
NdYSiHg,27.9046,25.9485,-1.9561
Sm2YErHg2,17.3893,17.8611,0.4718
Ac9La4Hg11,32.2837,30.2529,-2.0308
Sc(InGe)2,18.0553,15.5728,-2.4825
SrPuTl2,46.622,48.5693,1.9473
Be2CrRe,12.1781,14.8903,2.7122
CaSbOs2,29.539,31.2149,1.6759
YbHfGe3,35.3136,29.5844,-5.7293
LiAgSe2N,27.2356,21.5293,-5.7062
KBaSn,10.6908,11.4839,0.7932
RbNiI,7.0289,11.355,4.3262
La2Pr6Y3Ho,13.5757,10.7149,-2.8608
NaSr(YHg2)2,16.9202,13.9713,-2.9488
Y8HgSe6,30.2626,25.0715,-5.1911
Rb2Ce2NdS6,36.2763,29.3119,-6.9644
DyScAgRh,27.6502,25.2187,-2.4315
YMgHg,10.9176,10.3857,-0.5319
Cs2NaYHg,25.4154,21.6594,-3.756
NaYHg2W,24.4412,20.9863,-3.4549
Ge3SbRu,19.4037,17.8364,-1.5672
Ac2La3Sm7,38.3572,35.4449,-2.9122
La3Sm2Tm7,35.064,31.991,-3.073
Ca2InNi,8.8826,10.4784,1.5958
RbBeN2,32.5048,27.1186,-5.3863
Ac2RuPt,61.9079,54.328,-7.5798
Hg2PtW,32.5406,26.6175,-5.9231
Ba2YHg,28.0306,23.3624,-4.6682
InWCl2,17.6851,18.4816,0.7965
Ba2YHg,28.0356,23.3624,-4.6731
Pr4TlAg3,15.4588,14.6874,-0.7713
Ba2YHg,28.19,23.3624,-4.8276
ZnNi5P,12.7137,11.9993,-0.7144
Li4Er9Hg11,12.1156,12.932,0.8164
HfP3,31.2529,22.4342,-8.8187
Li4La9Hg11,20.4579,13.7851,-6.6728
Li4Er9In11,20.6232,21.0654,0.4422
La2P3Au2,23.2862,20.8855,-2.4007
AcNpS2N,39.9413,37.7942,-2.1471
ZnRe2W,42.891,40.0662,-2.8248
SiTe2Br,28.0958,24.956,-3.1398
Ta2CuSb,32.3386,32.8571,0.5185
Ba5YHg6,8.7594,7.7283,-1.031
SiTe3Br,27.2513,24.3412,-2.91
Ce2Al3CdGa4,10.8092,12.3518,1.5427
Cs2SiBr,18.397,17.2801,-1.1169
RbY2TcHg,59.9408,49.589,-10.3518
EuYHg4,12.7209,11.3886,-1.3323
ZrRuO2F,29.4566,23.2284,-6.2282
Ce2PrNb,47.1356,43.5826,-3.553
Ac2La7Ho3,48.0523,38.5176,-9.5346
Li4Sm9Hg11,10.4862,11.3678,0.8816
PrNd3(PuS3)2,44.2216,38.586,-5.6356
InPb2Br,41.3716,38.7692,-2.6024
Li9Ag4Sn11,14.6946,14.124,-0.5706
ScBeGe,15.9072,12.4011,-3.5061
PaNbPb,79.6659,76.1888,-3.4771
TbPrLu2,22.2619,24.4984,2.2365
Si2Sn2Sb,22.8933,15.5255,-7.3678
Y3HoN3,47.9037,39.226,-8.6777
ReHgIr2,32.1048,36.9222,4.8173
NaLiNbPd2,41.16,35.2795,-5.8805
Te2Rh3Pb2,47.8856,41.0818,-6.8038
PuBrN,27.0267,29.5565,2.5298
Y2HgSe,36.5409,24.9505,-11.5905
Hf2ZnTc,89.5944,70.0291,-19.5653
Ca2CePb,21.8993,24.1069,2.2076
Pm2Dy2Th3,43.2921,47.3411,4.049
PaTlS4,50.9057,43.5127,-7.3929
Mg11Zn9Cu4,9.1073,6.7666,-2.3407
Mg11Ag9Au4,20.5012,18.6394,-1.8617
Li9Zn4Sn11,10.7667,11.3689,0.6022
ReHgAs2,15.0252,17.1358,2.1106
TmLuMnAu,52.4354,50.0041,-2.4313
La7Pm3Tm2,41.5204,31.9642,-9.5562
SrSi2Ru,29.5358,20.3302,-9.2056
NaInTcBr2,32.8619,28.9102,-3.9517
SrSi2Cl,22.4542,17.0506,-5.4037
Sc3(MnNi2)2,42.2767,37.9248,-4.3519
CaSiTe3,33.0394,28.2997,-4.7397
Y2Mg2Cu,14.8789,14.0585,-0.8204
SrSiSe2,41.3608,32.7674,-8.5934
Sr4SiPb,28.0641,25.0489,-3.0152
TcMoBr2,29.0663,27.1194,-1.9469
LaTh2NpS4,50.3977,43.252,-7.1457
Zn2InOsCl,17.6414,18.1374,0.496
U2PaS3,61.067,55.8031,-5.2639
La7YEr4,41.1037,31.0364,-10.0673
SrFeCoSi2,26.3875,17.7813,-8.6062
Na3TmF6,7.422,7.4346,0.0126
Ac2InSb3Rh4,47.1838,39.0041,-8.1797
NaTlC,41.7515,34.027,-7.7245
SrSi4Cl,20.1665,13.9333,-6.2332
La4Y4Er3,31.9587,26.6654,-5.2933
Sn(SbN)2,29.6846,24.0003,-5.6843
Re2Ir3Rh2,44.1044,43.275,-0.8294
Mn3Ga2Co7,30.7111,26.6154,-4.0956
Np2Mn,79.995,76.8805,-3.1145
YPuHg4,20.0113,18.872,-1.1393
TlRuI6,28.7609,27.9931,-0.7678
Mn7Co2Os3,70.2626,59.7857,-10.4769
Ta2Pd3Rh2,31.9799,30.8691,-1.1108
AcYHgSb,39.3711,35.5473,-3.8237
RbTl3Ru,52.5786,49.6515,-2.9271
CaYTa2,41.4118,37.6539,-3.7579
CeEr2P3,14.1625,16.6323,2.4698
Re2Mo7W3,27.5278,29.6735,2.1457
YHg(SO4)2,20.2208,17.4039,-2.8168
LuCu4Sb,17.4012,17.531,0.1298
Zn2FeBr,11.1797,8.2135,-2.9663
Ac(PmNd)6,28.0119,29.5854,1.5734
AsOsPb2,39.954,42.1528,2.1988
Gd2CdCo,27.2647,26.2113,-1.0534
Sb4RuS,37.1118,28.9299,-8.1819
MnInIr2,44.9348,45.3912,0.4564
BeCrAs2,12.3588,9.628,-2.7308
Pr6PdPb2,5.1144,7.6822,2.5679
RbSe4S,41.6634,32.9185,-8.7449
Ac3Ga(CN3)2,35.0554,32.6369,-2.4185
Be(PRh)2,21.8811,16.0869,-5.7942
Ta3SnPt,45.0838,40.9305,-4.1533
Sb2TeAuBr,44.8683,40.222,-4.6463
YbMnAl4,19.6025,19.0393,-0.5633
HgMoS4,35.1329,28.4227,-6.7102
MgMnCdAg,38.1798,32.5746,-5.6052
Th3Pb,62.5791,65.8584,3.2793
Ir3(RhW)2,43.7256,43.9385,0.2128
YEr4Te5,32.9625,32.3626,-0.6
TlTcMo,53.8303,52.0184,-1.8119
ErNpPt4,75.4127,57.6455,-17.7672
Pa2CuTc,58.5375,58.1866,-0.3509
YCu2Rh,26.3467,22.2649,-4.0818
GdRh4Pb,45.9788,37.4024,-8.5764
CrInIr2,30.2849,32.1216,1.8367
K2Sb5Au3,35.278,31.1004,-4.1776
MnCoTcGeSe,44.965,37.4697,-7.4953
CoPIr,27.5999,26.3542,-1.2457
PmSm2Si,16.9802,19.1474,2.1672
Zr5Al3C,54.3024,42.4778,-11.8245
SbIrAu,45.4298,45.0104,-0.4195
MnMo2Ru,39.5424,35.2607,-4.2816
NaBr,7.6131,8.7446,1.1315
ThMoOs2,44.7159,46.6374,1.9215
Rb(SrSi)2,29.3266,19.5535,-9.7731
TaCd2Si,22.7367,23.0046,0.2678
Sc2Sn2S,29.0945,26.3176,-2.7769
Ac3EuPt,61.8715,57.5064,-4.365
AlBiI3,27.2132,25.5906,-1.6227
LaInO4,25.7017,24.7274,-0.9744
SrAc(CdIn)2,27.277,27.0495,-0.2275
GdGa3Tc,29.2254,27.8866,-1.3389
ScCd3Cu8,14.8555,14.3802,-0.4752
ScCdCu,31.083,26.9773,-4.1057
CuSbTe2W,36.1382,33.4426,-2.6957
Sc2SiSn,30.2781,26.7941,-3.4841
LiCaTe2N,18.3162,17.5084,-0.8078
SrReBi2,44.2396,43.9801,-0.2595
K3Si5I12,10.6549,9.295,-1.3599
TlTcMo2,44.013,44.0792,0.0661
TmSc2PaSb4,36.8923,32.6708,-4.2215
ScCdCu2,24.9835,21.8191,-3.1644
LaPb2W,49.3983,46.8881,-2.5102
LaPr2Eu,17.7238,15.4622,-2.2616
UCoP2,30.9039,30.1426,-0.7613
LiZr2Be,45.3174,38.2128,-7.1046
Tb11In9Rh4,27.1377,25.6714,-1.4664
Ba2Na3Sr7,14.1159,13.6093,-0.5067
Ni(P2Rh3)2,29.7363,21.6255,-8.1108
PWAu,106.545,89.7488,-16.7962
PPt2W,112.8557,85.2423,-27.6135
MoPtW2,45.4279,42.6097,-2.8182
Cs4Rb3LiBr8,12.8894,12.9583,0.0689
Cs2LiTcBr6,20.1425,19.155,-0.9875
AlAsPb2,42.3822,40.6958,-1.6864
Nb7Re2W3,99.2611,84.9404,-14.3207
La6In,48.152,32.013,-16.139
Tl2SbIr,47.6945,47.2235,-0.471
PWAu4,77.6944,69.8128,-7.8816
Sc2Ga5Pd3,13.1546,11.6205,-1.5341
Ag2PW,84.1104,68.5367,-15.5737
P2WSe,81.1165,65.3951,-15.7214
As2PW,73.6088,60.6162,-12.9926
P2PtW,91.0943,71.1891,-19.9053
CuPW2,79.4149,68.326,-11.0889
Hf3PSe,96.607,69.6469,-26.9601
SbP2W,80.1444,65.6677,-14.4766
Na3Re5N12,52.5162,47.7527,-4.7635
HfCuReSe2,58.4992,46.2691,-12.2301
ZrCu2GeBr,29.6604,24.697,-4.9634
PIr2W,89.6152,78.8549,-10.7602
Tc2PW,114.5081,96.0501,-18.4579
Re2PW,87.925,78.5461,-9.3789
SbAsW3,36.3122,36.0491,-0.2632
Ca2ScPb,20.2695,19.1789,-1.0906
ScAsPb2,42.956,40.3391,-2.6169
CaDyBeN2,17.6681,18.3882,0.7201
Ca2RuPb,19.7481,22.0517,2.3036
RePd8,20.3572,23.2448,2.8875
ScAsPb2,42.7211,40.3391,-2.382
Cs3BTe,23.4426,23.4977,0.0551
Ce3(ThRu)2,33.8832,37.0133,3.1301
LaIn,8.1804,8.2603,0.0799
Ca4PW,49.7134,41.4929,-8.2204
Ac2Ho3Ru2,39.092,37.7746,-1.3175
BaPW2,78.1968,66.1796,-12.0172
PW2Au,82.0814,73.0158,-9.0656
HfP2OsW,98.2795,74.4406,-23.8388
LiCrP2W,80.9898,64.9751,-16.0147
LiTb2Tm,21.1493,23.8015,2.6523
AcPrIrPt,47.4375,43.4473,-3.9902
PPt2W,113.0363,85.2423,-27.794
LaBrCl4,12.6033,10.5348,-2.0685
Ac2As3Pt4Au,55.6284,44.6267,-11.0017
PrSm(NpAs2)2,24.0111,26.4735,2.4624
Cu4IrSe,20.1117,20.3822,0.2705
GdTm3,30.3436,32.4557,2.1121
Os3(RuRh)2,49.6012,44.1666,-5.4346
Rb3Tb3Rh2,23.2816,19.7706,-3.511
PRh2WN,75.6408,58.5472,-17.0937
Ru2Pt2Rh3,63.9995,46.4516,-17.5479
HfRu2N,58.9818,50.6136,-8.3682
ZnGa2B,9.0908,8.7338,-0.357
BaLaMn3,71.4205,55.8518,-15.5687
RePWN2,114.2073,99.4586,-14.7487
ScSiBi2Rh,50.0516,44.0107,-6.0409
Ac7Nd3Sm2,48.0727,50.321,2.2483
SrGe2W,26.733,21.0851,-5.6479
GePW2Cl,66.0667,55.7302,-10.3366
NaCrCuTe2,21.2499,20.3156,-0.9344
BiSbTe3,45.8754,41.5985,-4.2769
SbPW2,89.1607,75.5769,-13.5838
InP2W,74.3158,61.9437,-12.3721
MnTlTe2N,47.1487,42.3829,-4.7658
ZnSbP2W,66.9109,54.0152,-12.8958
AsPWSe2,88.206,72.4078,-15.7982
Cd2CuPW,64.5811,53.9972,-10.5838
Co2PIr,22.2144,23.8584,1.6441
PWSe3,83.9749,66.4106,-17.5643
LiReIr2,31.9022,35.3476,3.4454
P2WAu,81.1597,69.1818,-11.978
LaSbPb2,50.3574,44.664,-5.6934
LiReIr2,31.7216,35.3476,3.6261
BeP2WSe,67.0989,53.2602,-13.8387
P3IrW,71.0069,57.2814,-13.7255
LaAlIn3,23.717,20.7277,-2.9893
GeP3W,58.2497,47.8225,-10.4272
RbTa2PW,72.9847,61.9255,-11.0593
PaSnS4,51.5647,43.0915,-8.4732
Tb2Pb2N,31.0443,33.8941,2.8498
CrPPdW2,68.1038,58.4735,-9.6303
P2PtW,90.954,71.1891,-19.7649
ScNbBi2Rh,61.5691,53.8263,-7.7427
LiMo2Au,19.7133,22.1372,2.4239
NdNbF6,24.4431,21.0712,-3.372
Tc2RhPb,72.094,63.3107,-8.7833
Ag3SnOs,33.0288,29.7415,-3.2873
Ta2AgPb,39.9427,41.7418,1.7991
Na(SnCl2)2,11.0556,10.7086,-0.347
Li2MoAu,16.2606,17.8102,1.5495
MoRuF3,13.7187,11.6547,-2.064
In2TcPb,46.8192,44.4106,-2.4086
Hf2TlSe,96.4879,74.2472,-22.2407
InTcPb2,55.0948,52.5673,-2.5275
BaLa4Mn,51.5382,35.9753,-15.5628
TcRhPb2,62.1769,56.8941,-5.2829
Mn4VMo2,80.5577,66.1979,-14.3598
NbCCl,61.3466,49.9985,-11.3481
Ru2Pt2W3,57.8088,46.8688,-10.94
BaAsPb2,28.8938,30.0295,1.1357
NaAsRu,14.8766,13.728,-1.1486
CaTeCN2,34.2957,29.7001,-4.5956
LiMgScRh,14.1571,12.167,-1.9901
Sc2InS,32.1111,30.3557,-1.7554
PmPr5Sm2Tm,4.902,7.6241,2.7221
LaCeAu6,44.4173,43.9657,-0.4516
Sc3(GeAu)4,34.9009,30.3259,-4.5751
La2FeW,38.0751,31.0021,-7.073
Sr2ZnI,13.9647,14.7217,0.757
LiIr2,22.5035,28.9382,6.4348
Y2Er3Ag2,25.3935,25.0497,-0.3438
ScCd8Ag5,22.5533,20.7329,-1.8205
HfTlSe2,72.1336,54.153,-17.9806
YErAgPd,31.1924,28.5368,-2.6555
SrLaTl,35.1631,32.311,-2.8521
AgMoRh2,36.2191,28.9523,-7.2668
HfTlSe2,72.4169,54.153,-18.2639
BaAs2PbSe8,47.6842,40.8435,-6.8407
GdBe2,11.8373,12.5396,0.7023
InSi2P,17.4729,15.083,-2.3899
InSiP2,14.429,14.0515,-0.3774
MnCd(CuSe2)2,40.2839,33.5237,-6.7602
CaCo2Pb,24.917,23.3668,-1.5501
NiRu2Pb,17.0437,21.3178,4.2741
Mn2GaWN,49.1407,42.8328,-6.3079
Tl(BrN)2,14.8306,17.5621,2.7315
LaCrRe2,37.2653,34.3385,-2.9268
Cu2AsW,17.2204,18.8051,1.5847
CuAsW,20.2455,22.735,2.4894
Ac3Tb2NpN6,25.5592,28.1401,2.5809
ScCuW2,38.1118,37.5826,-0.5292
Ca2TbPr,8.8712,9.8565,0.9853
Na(FeRu)2,33.1594,23.5328,-9.6266
Na(AsRu)2,13.3908,11.8682,-1.5226
TiBiSb2,32.7374,30.1917,-2.5457
ZnSbRh2,37.2908,28.9622,-8.3286
NiRu2I,17.0747,16.3649,-0.7099
ScAgW2,61.9636,52.1349,-9.8287
Mg4ZrCu,22.8565,18.3702,-4.4863
Li2Ac3Tl7,45.6287,46.768,1.1393
BaHfSe4,49.4642,38.753,-10.7112
Li3Zn7Cu2,5.6248,6.2965,0.6717
Zr4CuAs,68.7737,54.7798,-13.9938
Ac2Pr2Tm3,30.2579,32.9614,2.7035
Y3ErAg,15.1623,16.7142,1.5519
FeCu2GeTe4,33.2432,29.8951,-3.3481
YReNF2,68.6089,63.25,-5.3588
IrPdW2,25.765,33.8848,8.1198
In2Ag2P,18.4766,17.3852,-1.0914
Mo2AsBr,13.4522,17.2501,3.7978
Ac2Pr3Sm2,23.6665,26.0515,2.3851
Sc2SeS,37.0034,33.8718,-3.1316
Pr3(SmPt)2,30.0005,23.5436,-6.4569
Al2PdI8,19.9789,19.4967,-0.4821
Li7Tl3Cd2,16.0469,16.6233,0.5763
Li7Cu2Ag3,9.1933,8.2037,-0.9895
GaNi2Hg,5.0202,7.4436,2.4234
AgAs2Pb,26.2756,27.0736,0.798
ZrFePb,53.6517,47.0569,-6.5948
InTeAs2,20.6688,21.1202,0.4514
Y2ErTe,24.2488,26.1203,1.8715
Li2Y2ErGa2,11.055,12.7861,1.7311
Ag3PtI,42.4419,32.1107,-10.3312
InBrCl4,8.4372,5.4568,-2.9804
LiLaTeS,31.0834,23.7487,-7.3347
YErNi,65.0819,58.7346,-6.3473
CeTlCdAg,31.3779,31.3067,-0.0713
MoAs2P,12.953,13.3007,0.3477
Li3Re,7.4669,9.1693,1.7024
Li3Te,7.2523,7.5084,0.2561
Li3Nd2Sb3,23.2701,20.5466,-2.7235
Cs2CrCBr6,24.2679,22.1984,-2.0695
InTeAs2,20.859,21.1202,0.2611
CuRu3Pt,31.5635,26.4177,-5.1458
Hf2TeRu,86.3255,66.8613,-19.4642
Pr2Nd3Tm2,17.9672,20.7651,2.7979
Ni2Ge2W,14.2204,12.9995,-1.2209
Rb3Nb2Cu3S8,41.5078,32.421,-9.0869
CsGa(AsO4)2,9.5539,9.4408,-0.1131
LaSc2Re,41.0478,32.7003,-8.3475
InTe2As,28.781,27.7466,-1.0344
PaCuIr,38.8107,43.113,4.3023
CaTlAgN,18.5607,18.8731,0.3123
Pr2Sm3Tm2,18.1975,20.4535,2.256
Ba2CoCu,19.4135,15.3283,-4.0852
SbIrOs,43.9846,44.9116,0.927
Ta2Cu,28.0026,29.3737,1.3711
Li7Sn3Hg2,6.7119,7.1982,0.4863
Sc2Be15Ni2,4.2641,3.4379,-0.8262
Yb2Al3Pt,23.2273,21.0979,-2.1294
Ac2Tb2Pr3,24.1161,26.8703,2.7542
Np2Pb,64.6409,67.7126,3.0717
TaBe2Pb,29.1628,28.4317,-0.731
Na3InPb,29.4639,26.8164,-2.6475
TaTc3Sb,73.7902,64.0158,-9.7744
CsGa(OsO4)2,14.8712,14.0488,-0.8224
KHg3Pd,0.7904,2.8502,2.0598
Na(InPb)2,31.021,31.6828,0.6618
Zn2GaNi5,6.5802,8.6034,2.0231
Li(TeC)2,38.3343,29.2781,-9.0562
Co(SnB)2,6.1736,9.6219,3.4483
LiBe3Ni,3.7053,3.0372,-0.6682
Sr2CeCu2S5,33.4398,27.8237,-5.616
UNbSn,69.426,65.1792,-4.2468
CsNdS14,48.1832,34.2404,-13.9428
CaTcIr2,46.9218,44.5382,-2.3836
ScAsBr2,21.9345,17.0571,-4.8773
LaCeS2,38.5822,28.9551,-9.6271
Ce3YS4,37.4386,30.3513,-7.0874
RbTlGe,19.9923,20.3311,0.3387
Cs2MnCrS4,41.4561,33.1052,-8.351
ZnTcN,39.7258,34.6337,-5.0921
ZnGaNi2,6.7969,9.2993,2.5024
ZnTc3N,57.3836,50.6754,-6.7082
NaSc3Br,11.9493,11.037,-0.9124
NaScAs3,22.807,18.2646,-4.5423
ScAsBr,19.7798,14.5101,-5.2697
ThMgZnCo,27.4505,24.4595,-2.991
Na2ZrRhC,53.5529,39.5977,-13.9551
CeOsO3,5.2155,8.5965,3.381
Ho6ThSc4,23.6266,25.1696,1.543
LiCaCr3,15.9813,11.6589,-4.3224
NaReNi2,34.292,26.0625,-8.2295
Tb2Co4C,20.9689,20.2777,-0.6912
NaCaGe2,11.8083,11.8468,0.0384
Na3Th(ScS3)2,45.604,38.1933,-7.4106
LiCaCr2,16.2405,12.3563,-3.8842
YbGaAg,15.6435,17.5003,1.8569
LiScCr,15.955,12.9204,-3.0346
TeMoRu3,24.955,24.1214,-0.8336
Ti2Si2Os,7.2467,8.8256,1.5788
CdAs4Ru,16.6003,14.3082,-2.2921
CuWAu3,38.7249,40.1496,1.4246
NaLa(AsPt)2,45.0507,32.3292,-12.7215
AgAs4Ru,18.6717,15.144,-3.5277
La(TbTl4)3,46.0569,45.9592,-0.0977
Li2CaCr,13.5092,9.9198,-3.5894
La3PrPb12,48.3886,45.8587,-2.53
Ac2TbCe,45.3574,48.5277,3.1702
Fe4AsPt,30.9142,24.2609,-6.6533
AcTbCe,38.7993,42.0491,3.2498
Y3Er(ScTe3)2,27.9021,26.4021,-1.5001
CuW2Au,33.0935,36.7047,3.6111
ScAgW,69.6049,54.5078,-15.0971
Sr3AcSb2P,27.3298,25.863,-1.4668
YbMgN2,21.1789,20.9848,-0.1942
Ta2BePb,34.8811,37.1136,2.2326
TaBe2Pb,28.7315,28.4317,-0.2998
SrLaSn2,26.0589,23.4424,-2.6165
Ac2ZnSn3Pd4,29.7534,27.9377,-1.8157
TiAlP,18.9563,17.6031,-1.3532
In2AgSb,26.0647,24.2364,-1.8284
Ac2Zn3Sn4Pd,25.9351,26.0753,0.1402
InSn2Cl,12.9043,14.7255,1.8212
In(AgSb)3,32.8177,26.3285,-6.4892
CuTc2Te,52.6538,47.3236,-5.3302
NaNiBr,10.793,10.3347,-0.4583
TaBePb2,39.1356,39.8818,0.7461
NaNiI,14.6071,15.7767,1.1696
YErSb2,32.2199,29.9226,-2.2973
TaBePb2,38.8331,39.8818,1.0486
V5Ga5Cu,63.6238,50.1069,-13.5169
Tb9Pm11Th4,32.4557,34.4184,1.9627
Pm11Sm4Er9,26.6014,28.4242,1.8229
Be2Ni2Se,7.6267,8.2549,0.6282
Al4SiSe3,26.172,20.9629,-5.209
VGa3Cu,34.0106,27.3529,-6.6577
Ac3SbAs2Pt9,70.3007,51.7239,-18.5768
CuTe,0.0809,3.6439,3.5631
TcAs2Pb,41.501,40.0186,-1.4824
InAgSb2,35.3609,29.724,-5.6369
Sc3AuC,3.7857,7.658,3.8723
BaPrCu2,3.7596,4.1577,0.3981
Ca2TiIr2,25.6497,21.1277,-4.522
NaReNi,43.8635,31.5623,-12.3012
ReSiCl2,16.657,15.4099,-1.2471
Rb2In3Ag2,17.9093,16.476,-1.4333
TaNi2Hg,12.4848,15.9911,3.5063
Rb2Bi2Au3,36.2045,36.8803,0.6758
Li3Ga7,2.9113,4.0581,1.1467
NaSr3Pd,8.8599,11.2926,2.4326
LaAlPb,35.5731,32.2112,-3.3619
Ga2FeTe,17.8063,15.9121,-1.8942
Cs2Rb2Tl3,29.1938,29.2928,0.099
Ac3ZnP2Pt9,66.8257,49.301,-17.5247
Eu2(Zn2Ge)3,12.9956,12.5711,-0.4244
Lu2PBr,19.2872,21.7338,2.4465
LiPmS2,33.1491,27.1862,-5.9629
BaAlCo,20.8763,13.8253,-7.051
Mn(Nb3Bi)2,117.7208,98.0971,-19.6237
NaScIrS2,46.0797,40.1408,-5.9389
Tb4Pm9Hg11,13.2078,14.6446,1.4367
NaOs2Pb,36.207,40.3756,4.1685
Pm9Er11Tm4,27.9114,29.6922,1.7808
Pm9Ho4Hg11,13.4931,14.9236,1.4304
Pm6Ho2Tm,21.7104,24.8312,3.1208
Ac4Pr11Ho9,19.2487,20.9677,1.7189
TbGd2I,26.7319,29.1364,2.4046
Ac2ZnSn3Pt4,54.8252,43.8142,-11.011
BaAl5,5.1587,5.3112,0.1525
Th2PBr,35.641,38.5673,2.9263
Pm4Pr11Tm9,13.4953,15.0537,1.5585
Tb9Pr11Dy4,12.3994,14.122,1.7227
Na(IrOs)2,39.5915,41.728,2.1366
Cs3Sm(HoS3)2,39.4458,32.9976,-6.4482
Pr4Er11Tm9,24.6909,25.8316,1.1407
Pr4Dy11Er9,22.8275,24.4396,1.6121
Pr4Sm11Ho9,21.3465,22.9694,1.6228
P2S,22.5805,22.9108,0.3302
Pr4Er9Tm11,24.8029,25.8597,1.0568
Pb2SeN2,30.9644,30.1407,-0.8237
PuNi,39.9267,42.6591,2.7324
Y2Er2Sn7,28.5729,25.7436,-2.8292
PrBi2Os,30.2429,34.9441,4.7012
Pm9Pr11Dy4,11.721,13.5638,1.8427
InGaCo3S2,22.5505,19.8839,-2.6667
Tb3Pm(PuS2)4,51.0356,44.8229,-6.2127
Rb3(AgHg)2,9.5758,7.6228,-1.953
KYPb3,37.5036,37.9692,0.4655
Pr2Sm6Y3Er,18.1405,19.4001,1.2596
Pa6MnTe3S2,61.0773,57.8632,-3.2141
Mg5(InPb)2,17.5044,18.3856,0.8812
Ba3AcTe4,27.4191,27.3405,-0.0787
Ba2Ge2Ru2C,16.7843,16.6782,-0.1061
Ba2CrGeRu,11.0155,10.7854,-0.23
ScAsPd2,23.0735,20.5423,-2.5311
AlTlCo,37.1031,30.7768,-6.3263
KSrHoI6,16.4265,17.3476,0.9211
Pm3Zn2Cd3,18.1127,19.6395,1.5268
BeIr2O,16.4928,21.3436,4.8508
BeWO2,16.5318,17.6716,1.1398
LuTlNi4,17.9001,20.8662,2.9661
NbSbBr3,51.169,43.4079,-7.7612
LiPrYEr,10.6447,12.645,2.0003
Tc2NiIr,50.8227,48.9187,-1.9041
GdAl5Co,13.8502,11.9097,-1.9405
BaAl2Co,25.2854,16.3026,-8.9828
SrGa6Fe,13.4934,12.4261,-1.0673
Tb6SmSc4,18.9601,21.1227,2.1626
Tb2Sm7Sc,24.0045,25.7815,1.777
Tm4CuAgAu2,31.3092,32.6699,1.3607
InWAu2,38.5413,42.3822,3.8409
Gd2TmCu,23.9357,26.83,2.8943
ReSb2Pt,55.2904,44.4238,-10.8666
Tm(CuAs)2,12.2597,14.3464,2.0867
ReSiI2,20.3994,21.1915,0.7921
RbV2AgBr8,31.0848,25.3547,-5.7302
TmCu2Ag,18.7563,19.1069,0.3506
CrIn(SnCl4)2,11.0419,11.4952,0.4533
TlTePt2,67.9606,53.092,-14.8686
CrIn(PbCl4)2,16.2947,16.5316,0.2369
KGaAg2,18.2129,16.4256,-1.7873
KNa2Pb,28.4036,26.1761,-2.2275
SnRu2Rh,31.1933,28.1202,-3.0731
HfNb2S,111.9547,89.3335,-22.6212
Ac2Pd5PtAu2,34.4103,34.4882,0.0778
ThNbRu2,59.7913,57.3343,-2.457
ZrCSe2Br,54.0616,41.3412,-12.7205
Cu4IrAu,19.7896,22.0525,2.2629
TmCuAu,27.6644,30.2284,2.564
ReOsPt2,65.59,53.4366,-12.1534
Cs2BiN2,21.6504,22.767,1.1166
Ac(Tb3Th)2,39.681,43.1991,3.5181
AcSmS14,54.8703,40.6196,-14.2507
TbCe3(PmS3)2,38.9408,33.2481,-5.6926
AcSmS14,54.8753,40.6196,-14.2557
TaSi2Au,28.3707,26.7793,-1.5913
TaCu3,16.1315,17.6878,1.5564
ReOsPt3,72.0893,54.6235,-17.4658
YPtO3,12.6505,11.3101,-1.3404
Tm2CuAg,24.5361,25.3672,0.8311
ReOs2Pt,53.7996,50.8374,-2.9623
ReOs2Pt,53.7153,50.8374,-2.8779
Rb2Tl2Pb3,37.5352,38.2147,0.6794
Tm2MnCu2,29.8607,27.8741,-1.9866
Ta3SiAu,36.3261,36.7175,0.3914
TmLuBeCu,21.8795,22.4254,0.5459
Tm2CuAu,28.2526,30.8648,2.6123
Cs2Rb3Cd2,13.2091,13.1409,-0.0682
EuTmCu2,17.9512,20.0289,2.0778
Ba3(TlRh)2,28.2812,24.9371,-3.344
AcCdSi2Pt5,61.6378,43.9335,-17.7043
TmCuP2,9.126,11.5012,2.3752
TmLuCu2,19.128,21.415,2.287
TbSmSc2,15.4856,18.8232,3.3377
Yb3Fe2(CuP2)2,26.2602,24.0557,-2.2045
Rb(SbBr4)2,21.7416,20.1759,-1.5657
NbRhCl2,50.0987,40.2495,-9.8492
NbNiPd3,41.5061,36.7209,-4.7851
Na3BrN,16.9505,14.3713,-2.5791
Tc2PbAu,72.0149,66.7682,-5.2467
Ta2NiAs,32.0711,34.1211,2.0501
TaNi2As,24.2151,23.7257,-0.4894
Sc2SnC,23.9862,19.9634,-4.0228
Ta2NiAs2,19.4998,21.1435,1.6436