Formula,E_hull_DFT (eV/atom),E_hull_ML (eV/atom),Delta (ML - DFT)
ThZrSc4,23.9624,24.625,0.6626
Ba2CdCu2,7.3316,7.5647,0.2331
HgAuO2,12.7159,13.9549,1.2389
MoPbF2,17.7787,18.4153,0.6365
DyMnIr,40.9841,40.0967,-0.8874
Ca2BeMoBr,14.2577,11.995,-2.2627
GdThZr,64.6656,62.2592,-2.4063
ThZrSc2,43.6631,42.869,-0.7941
LiEr2Au,26.1962,28.4342,2.2379
La4NiIr,42.3337,34.3787,-7.9549
Y2ErTe3,23.4886,25.7878,2.2992
CsRb2Br4,9.3852,9.3447,-0.0404
Y2ZrIn3,32.4342,30.2006,-2.2335
Dy(ErCu)2,15.1715,18.7278,3.5563
Er3Sc3CuTc2,73.1591,61.5693,-11.5898
Sc3TiS,22.6793,21.4419,-1.2375
Ti2InRu,11.1404,15.1176,3.9772
MnInGeIr2,45.1573,41.8026,-3.3547
MnAlTe2,47.1678,41.1884,-5.9794
TaAl3Hg,10.0541,11.328,1.2739
Dy2Co2Si2C,23.0583,21.4689,-1.5894
Rb2AgMoIr,22.7842,19.0879,-3.6962
MnCo5Sb,26.2337,23.0995,-3.1342
Al2AgSn2,12.3557,12.6432,0.2875
TaPdN3,20.4578,19.9038,-0.554
CdIn2SnBr6,14.2091,15.0017,0.7926
Nd23Hg4Rh7,21.0088,18.8878,-2.121
MnCoSb,44.9513,37.635,-7.3163
Pm2Sm2Ag3,27.5405,25.9137,-1.6268
Ca2SbSe,43.0928,34.8532,-8.2396
MnCoSb,51.8141,37.635,-14.1792
Y3TlAg2,20.559,20.6505,0.0914
Ba2MnAlS5,40.1701,28.2915,-11.8786
MnAlPb2S5,48.7428,39.0147,-9.728
LiCoSb2,25.273,21.6088,-3.6642
KReW,33.8319,34.5687,0.7368
Tl5(V2Ni)2,71.4728,60.9821,-10.4907
Mn2CoSb,64.0463,52.0657,-11.9806
NbSiSN2,43.299,33.6762,-9.6228
Sr2Tl3In,30.3818,31.7962,1.4144
H9I3O2,15.0343,12.3913,-2.643
ThNp4N5,33.8748,37.2437,3.3688
ThNp4N5,33.8688,37.2437,3.3748
CePr3(AsO4)4,4.7781,3.8177,-0.9604
Ba2SrTcS,32.4537,26.1244,-6.3293
SmSb2Au,35.0753,34.2053,-0.87
TiCr2Sb,28.6209,25.8698,-2.7511
TiCrSb2,31.6708,28.8139,-2.8569
ErZn2Sn,16.1154,18.2101,2.0947
Ti3CrSb,23.4693,21.9424,-1.5269
Sc5Sn2PdRh2,18.9085,14.3895,-4.519
In(SbAu)2,37.4252,35.8052,-1.62
NiPt4Au,68.576,53.3118,-15.2642
Tl3Cd2I7,28.8099,29.0545,0.2445
Li4CrSb,9.6032,7.7334,-1.8698
Zn2IrPt,40.8516,32.963,-7.8886
LiCrSb4,31.9583,26.7256,-5.2327
CuAgGeAu,23.7494,23.6964,-0.053
SrTm3Ru,24.1414,25.9342,1.7928
Tl4GeTe5,42.1785,40.8533,-1.3252
Cr3PtBr,37.4004,28.7876,-8.6128
Zn2IrPt,40.8258,32.963,-7.8628
ZnIr2Pt,50.2431,42.6088,-7.6343
PuPaPd4,34.6049,35.7319,1.127
NiRh4W,41.2906,32.9007,-8.3898
Th4NiPt,52.0586,50.6172,-1.4414
LiScFe2,33.8913,30.0801,-3.8113
La(NdCu)2,18.2007,18.2535,0.0528
TmNi3Rh2,26.1634,21.4732,-4.6902
Sm3(HoAg)2,27.6972,28.6006,0.9034
TbY14Er,15.6374,16.8238,1.1864
Pr4NiRh,5.0326,2.7187,-2.3139
AlTc2Os,58.7561,51.9061,-6.85
Cr2PtBr,44.1066,34.2566,-9.85
Ca(PPb)2,29.8917,28.6056,-1.2862
PmYTeAs,21.2223,23.9182,2.6959
Ac2NdCu2,29.4153,31.4751,2.0598
U2(NiRu)3,25.1939,27.5861,2.3922
Pr2AlAgSe5,23.4479,18.6556,-4.7923
CoSnSb2,25.5672,23.0437,-2.5235
Pa2(NiRu)3,24.7596,27.1368,2.3772
HoTm4Rh5,38.678,33.8022,-4.8758
Cs2TcAgBr6,23.3163,20.9153,-2.401
Pr2ErSb3Pt4,50.2906,38.7125,-11.578
SrCa2SeS,43.893,32.1594,-11.7335
Ca3MgHg12,0.6273,1.2093,0.582
SrTbNiS3,31.5791,24.6138,-6.9653
Er2NpSb3,23.5488,26.2366,2.6878
AlTeAu2,35.1397,35.6138,0.474
ErPa2Sb3,42.5247,42.6217,0.0971
AlTe2Au,29.7434,30.8502,1.1069
ZrTa(VN3)2,34.7902,26.9173,-7.8729
AlTe2Au,33.6492,30.8502,-2.799
HfRuF2,44.0052,34.4005,-9.6047
Zn(CdIn)2,15.6606,16.8029,1.1423
Pm2TmCu2,14.047,16.4346,2.3876
AlTeAu,26.9583,28.6699,1.7116
ZnCdIn2,16.7047,17.823,1.1183
DyY3Au2,20.8828,23.5336,2.6508
TbNd2ScP4,21.376,20.3924,-0.9836
Er4NiSb,25.5133,25.4956,-0.0177
NiSbTe4,39.7164,35.2489,-4.4675
Cs3AgGe,16.7141,17.5588,0.8447
AcAlSi2Ni5,18.4181,17.841,-0.5771
Zn2InPb2,25.6952,27.1528,1.4577
Zn2Cd2In,14.8121,15.712,0.8999
TcIrI,46.7525,45.7748,-0.9777
Sm2ThAs3,22.8685,25.5619,2.6934
Tm4NiSb,26.4325,26.4055,-0.0269
Sc2TiSb2,16.7651,14.0848,-2.6803
Sm8Sn2Au,25.8443,27.2868,1.4425
K3Sr5Cl12,2.4135,2.202,-0.2115
Ca(CoTe)2,21.321,19.0181,-2.3029
TlZnCd,26.0839,27.0571,0.9733
Nb3GaAg,94.0217,75.0606,-18.9612
Mn2Ni2Ru,78.9054,70.1786,-8.7269
YZn2Ag,13.5421,12.3181,-1.224
Zn2InPb2,28.152,27.1528,-0.9991
SrTbAgS3,33.5165,25.463,-8.0534
SrBeS2Cl,31.8686,24.8078,-7.0608
ZnIn3Pb,24.1878,25.0882,0.9005
MnGeOs2Pb,50.1552,47.6766,-2.4786
CsRb2NpO4,4.1612,7.0025,2.8413
SmYGaIr,27.2441,27.2983,0.0542
Cu2GePt2,40.1097,31.9961,-8.1136
PaAlSi2Rh5,42.2967,33.1296,-9.1671
ZnInPb2,33.273,35.21,1.937
TaAs2Ru,16.244,16.3738,0.1298
YTmSnPt,48.6074,38.8081,-9.7993
GdGaAu2,25.8217,28.721,2.8993
ZrTi5Al2,18.6403,16.7879,-1.8523
Pr3DyErTm,8.9866,10.4155,1.4289
Nd(CuSb)2,20.3377,20.2405,-0.0972
Sr2Cu(SI)2,26.2735,22.7135,-3.56
SrSmAg4,27.1555,23.6606,-3.4949
Pm(CuSb)2,20.3748,20.2674,-0.1074
VSiP,46.5218,25.683,-20.8389
Sm2Lu,27.8902,30.9751,3.0849
InRuSe3,37.2393,31.3532,-5.886
PtRh5,48.6638,35.6265,-13.0374
Zr2(NiIr)3,42.652,40.9884,-1.6636
LuRhAu2,43.5733,41.878,-1.6953
AlZnAs2,20.4081,17.5339,-2.8742
Cd(GaSe)2,26.371,22.5978,-3.7732
TaGaRu2,32.7951,31.4602,-1.3349
Sr3AgI,18.5839,17.8205,-0.7633
Ce3Nd(YSe3)2,32.8828,28.9506,-3.9322
La4NiTe,36.5849,28.3804,-8.2044
Tm4NiTe,12.716,17.3299,4.614
Pu(CuSn)2,55.0974,49.5717,-5.5257
CeNdNi,22.2308,22.8958,0.665
NaSrScGe2,23.358,17.8915,-5.4665
CaLaFe3,24.9162,19.1411,-5.7751
CsRbAuO2,18.6707,18.4212,-0.2495
Nb3BO,85.1168,68.2466,-16.8702
LaMnFe2,44.2608,35.7156,-8.5452
YTm(SbO4)2,35.1825,29.8152,-5.3673
La2PbI,43.954,38.2421,-5.7119
GdGaNiAu,23.7454,24.8788,1.1334
Cs2Yb6NF,26.4418,27.4114,0.9695
SbC3,53.4097,39.3173,-14.0924
Tl2RePt,53.9553,50.1707,-3.7845
EuGdGaAu,27.6914,29.9314,2.24
Tb2TmCu2,14.7575,17.6082,2.8507
Y2Ge5Pd3,13.2001,12.893,-0.307
Ni2BiRu,15.8583,19.7622,3.9039
Y2Ge5Rh3,16.6472,12.9035,-3.7437
Li(CoCu)2,25.8842,19.867,-6.0172
Pr5TmSi4,6.141,4.7909,-1.35
GaSn3Pb,24.9642,25.8033,0.8391
PrNpSe3,18.9807,18.299,-0.6816
Sr2AlOs,14.2609,18.0868,3.8259
MnCoSb,45.0852,37.635,-7.4502
Zr4TcNi,81.7895,70.2838,-11.5057
Cr2Ga3Ir,9.2126,10.9127,1.7001
K2TaCuOs,25.153,24.1619,-0.9911
La2EuY,36.4702,31.1815,-5.2887
ThCd4,23.2095,26.553,3.3436
Sr2InS,21.5585,20.0226,-1.5359
Pr2AgTe,15.2357,14.5741,-0.6616
SrOsS2,35.7746,31.1801,-4.5945
Th2ScSb3,45.5962,42.6101,-2.986
K2MnIr,38.2497,34.7143,-3.5354
MnCS2,69.6263,52.0164,-17.6099
InAsRu2,18.4632,18.7779,0.3147
Tm2CdRh4Pb,40.5268,35.2364,-5.2904
Hf2Al2Co3,58.3104,40.1941,-18.1163
HfGa2Ru,44.8733,35.585,-9.2884
Nb3Ni3Rh2,67.4075,53.8784,-13.5291
Fe7As,11.2163,10.8693,-0.347
Zr3Ni3Rh2,50.9628,42.9909,-7.9719
Nb2(NiRu)3,43.5609,38.3307,-5.2303
Nd(ZnCu)2,10.4652,12.2098,1.7447
Ce2(NiRh)3,30.5736,24.1559,-6.4177
HoPu(UAs2)2,33.7388,35.8887,2.1499
Pa(ZnCu)2,19.2347,21.0086,1.7739
AlSeI,15.8456,11.9338,-3.9118
ZrAgSb2,49.3416,42.1354,-7.2062
Zr4NiOs,64.662,56.7727,-7.8893
CePrSc2,7.6769,9.9448,2.2679
Tm(ZnCu)2,8.375,11.3939,3.0188
HfMo2Ru,41.1558,35.2133,-5.9425
CsAg2SbBr6,22.5114,20.6443,-1.8671
In2Rh2O7,11.2447,8.9611,-2.2836
AsC5,52.9887,36.699,-16.2898
SrSmAg2,25.0564,23.1232,-1.9332
As5C,18.9913,16.8463,-2.145
AcYZnGa,25.2357,25.8402,0.6045
BaNaSmPb,25.3577,26.1338,0.7761
KTa2O6,0.2007,3.659,3.4583
SrBrO3,7.5365,6.511,-1.0255
CaTiCu4,7.5331,8.1536,0.6205
ThBe2SiPt4,59.5078,46.5951,-12.9127
Mg3Cr2,1.26,2.2978,1.0378
Ca(TiCu)2,2.4552,4.511,2.0557
Sr2MnBe,37.3521,29.2464,-8.1058
TaBi3I,45.0529,46.1703,1.1174
TeP2Br,12.6095,13.4885,0.879
CaLa3(YTe3)2,36.8696,31.3744,-5.4952
Be2ReI,26.6723,27.8302,1.1579
Sm9Y2Er,23.5334,24.8865,1.3532
Y2ErPaAs4,19.1586,21.5995,2.4408
K2NiBi2,24.5458,25.0042,0.4584
YThMg,28.9403,30.5757,1.6354
PrFeCu,14.4172,12.2735,-2.1437
SrYEr2,23.8494,24.3441,0.4947
SrRuSCl2,25.7833,21.5763,-4.207
Th2CuAu2,40.598,44.4456,3.8476
Ba2CuAu2,16.7536,18.3823,1.6286
TcNiAs3,34.2712,27.7928,-6.4784
Pa2Ga2Cu,26.6963,29.4193,2.7231
PuZr3Ti,47.8134,41.676,-6.1374
TbYbSb,30.438,31.5743,1.1363
CeTh3,55.8339,58.9928,3.1589
SrLaPm2,28.7754,27.5055,-1.2699
NiAsC2,38.4968,26.7996,-11.6972
CaMg2W,9.8164,12.5374,2.721
PmTh(SiPt)2,48.7823,39.8671,-8.9152
LaPm,33.4435,29.3952,-4.0483
Sc3TlS,13.6551,16.9555,3.3005
Yb(Sb2Rh3)2,45.6699,35.5174,-10.1525
SrTaIr,41.925,37.201,-4.724
SrLaPr,20.2327,17.306,-2.9267
Cs2YNpO6,11.2085,12.6466,1.4381
Yb(Sb2Ir3)2,43.0354,42.0521,-0.9833
Yb4SbSe3,39.5328,36.28,-3.2528
YbSbPd,18.6958,20.7046,2.0088
YbSbIr2,41.4951,42.6506,1.1555
CuAs2,4.9364,9.6746,4.7382
Yb(Mn3Sb2)2,73.6726,59.8031,-13.8695
Cs6AgAu2O,30.637,29.2933,-1.3437
YbAlSb,16.551,17.3758,0.8249
TePBr2,17.2023,16.6268,-0.5755
Cs2ZrTeO6,12.1467,11.0255,-1.1212
Nd2CuIr2,28.0716,31.6613,3.5897
Sr2ScAlSe5,24.7932,19.8968,-4.8963
SrMo2S,19.0659,17.9939,-1.072
Ba2CdPtAu6,38.9598,37.6245,-1.3352
SmMn4,76.4547,61.932,-14.5227
SrSe3I,36.4307,30.3315,-6.0992
SrCr2C,33.4357,27.8627,-5.573
BPPdS2,29.2901,25.6641,-3.626
Rb(AgSb)2,27.8277,23.2953,-4.5324
CdNiI4,18.2692,19.4501,1.1809
BaV3Ir,88.5743,70.0307,-18.5436
Sr(CaAc)5,33.7537,33.8137,0.06
Sr2CrRu,15.7498,14.6839,-1.0659
SrTaIr,42.6357,37.201,-5.4346
SrCrRu2,16.4997,16.2039,-0.2959
SrCr2Ru,14.5928,13.4847,-1.1081
Pm(YEr4)3,26.1924,27.5022,1.3098
CaZr2ZnN,51.656,43.0832,-8.5727
Ac3La,61.3393,58.8831,-2.4562
Ac2La3,52.873,45.6829,-7.1901
WC3,57.864,42.1278,-15.7362
K3Cr5Br12,10.402,8.6919,-1.7101
Ac3La,61.3297,58.8831,-2.4466
LaY2Er9,28.6675,28.7208,0.0533
KTl2Ru,29.3547,30.7208,1.3661
AsPt2F,44.5773,34.9464,-9.6309
Sr3LaPb,29.0549,27.0035,-2.0515
Sr2LaPb,32.6211,30.5667,-2.0543
Li3Tl4,29.0953,30.2216,1.1263
EuIn2Sn,21.734,23.1993,1.4652
GeOsRu2,21.1819,25.3209,4.139
Cu3PPb,20.2458,18.8445,-1.4012
BeNiI3,23.3586,23.4041,0.0455
Nd3BiRu,28.6346,30.2696,1.635
Pm2VSb,55.5835,47.5565,-8.027
Nd(SbRu)3,23.7178,23.003,-0.7149
NdBiRu,31.5827,35.5532,3.9705
Pm5NdRu2,38.993,35.1918,-3.8011
CuTe2,26.9029,26.4689,-0.434
Pu2Cd3Ag2,37.7188,36.7159,-1.0028
NbB3C,50.6963,39.9778,-10.7186
SrAc2Pr,34.5115,36.9457,2.4342
Ba2CdIn6Pt,22.5974,21.1314,-1.4661
SrY2S,25.8949,21.6804,-4.2145
Ce3(AgPb)2,34.3459,34.2318,-0.1142
RbLiMo2Ir,23.5019,19.4209,-4.0811
Pr2Nd3Ru2,29.4654,28.608,-0.8574
Hf4CuNi,97.7446,70.6966,-27.0481
Ta2CdMo,27.3594,31.6725,4.3131
NiAs,11.1908,8.7712,-2.4196
NdY(HoHg)2,17.7107,18.0631,0.3525
YEr2Tl9,43.9405,44.9935,1.053
NiAs,0.0,8.7712,8.7712
NiAs4Ru,14.1891,10.8305,-3.3586
Ir3Os,43.0887,48.8429,5.7542
Be2IrW,26.2957,26.6647,0.369
GaSnSe3,30.3589,25.3595,-4.9994
GaRu3Pt,31.535,27.2525,-4.2825
La2ScMn2,54.9905,42.3195,-12.671
NiPdBr4,11.5039,12.7756,1.2717
Ga2SnSe,21.521,20.2604,-1.2606
BeIrW2,33.1465,37.5686,4.4221
BeIrW2,32.9074,37.5686,4.6612
Nb(ZnB)2,36.4654,27.557,-8.9084
Cr2OsRh2,31.5516,27.0033,-4.5483
SrGa5Os,13.6876,15.122,1.4344
ZrHgMoOs2,44.3498,39.4261,-4.9236
ThBiI,42.2117,44.5889,2.3771
CsNpCd2O6,12.0611,14.1658,2.1046
CsNdSb,26.7244,27.4233,0.6988
Zr2PbBr,72.4323,62.934,-9.4983
Cr2ReW2,27.2654,30.9763,3.7109
Er4CuNi,21.5293,24.5141,2.9848
ZrPb2Br,60.9235,55.5996,-5.3239
CaHfTc2,77.079,61.4516,-15.6274
GaTeSe2,32.8637,29.1227,-3.7409
Cr(OsRu)2,0.0,3.0493,3.0493
Ho3(TmAg)2,29.7413,30.1202,0.379
Tm4CuNi,22.3741,25.3502,2.9762
Cd(SbBr)2,35.9139,31.9791,-3.9348
Cs2HfBi2,56.2368,49.6645,-6.5723
Pr3Y2ErS6,30.7139,23.3315,-7.3823
Ag2TePt,48.6929,38.4312,-10.2617
Sc(TiNb)2,51.4165,43.9967,-7.4198
CuNi2Br,11.4536,11.7433,0.2897
PrY(ErS2)4,39.7979,31.9953,-7.8026
Zn2CdW,18.5348,20.7319,2.1971
NaCeInAu,28.8585,29.3376,0.4792
YP,34.8053,27.6117,-7.1936
MoOsAu2,42.0003,41.3922,-0.6081
CaIn4Se,35.9216,31.6004,-4.3212
ZrScBr,40.3431,34.7664,-5.5767
Cs2CuOsO6,9.2695,11.4682,2.1987
SrSc3Au,16.4904,17.6512,1.1608
Cs2RbHgAs,28.158,25.1302,-3.0278
Si2MoBr,14.3838,12.2876,-2.0962
TiNbB2,30.3536,32.9114,2.5578
Fe2AgSn2,9.7111,10.8467,1.1355
Nd2Sm3Ag2,26.6278,26.9526,0.3249
SrBe2W,26.9907,19.4664,-7.5242
GdGe4Bi,20.0278,21.4692,1.4414
AlTl3,39.042,40.3422,1.3002
Na2Sb2Pb,35.119,31.0461,-4.0729
InSb2Se,39.5827,33.8771,-5.7056
Na2NbInSi,46.0524,36.8651,-9.1873
Sc2SbAu2,25.2632,25.5668,0.3036
CaNbB2,31.8709,29.2144,-2.6565
Sc2TlS,32.7943,32.6876,-0.1067
InSbSe,26.492,23.3153,-3.1767
Al2TlSi,28.2903,26.0139,-2.2764
Ti2V2Cu,47.6293,39.216,-8.4133
Cs2BaOsO6,8.3523,10.4761,2.1238
Ba2ScRe,29.0933,23.6098,-5.4835
CdSi2Au,24.241,21.6968,-2.5442
SrBeW,33.3259,23.5292,-9.7967
Tb5Dy3,26.9013,28.8855,1.9842
TbY2ErIn2,16.6891,17.9587,1.2696
TmH12Rh7,18.6809,13.9688,-4.7121
LiReOs2,31.3559,35.7249,4.369
Na2Li2Ge,9.9627,8.2375,-1.7252
PdPbBr2,30.6556,29.8822,-0.7733
SrCeAg4,27.2022,23.6002,-3.602
RbY2In,11.0447,11.3688,0.3241
CrReRh2Pb,42.4006,36.3131,-6.0875
NaLiEuIn,19.3708,18.2666,-1.1042
Pt(Pb2I)2,49.3602,46.4632,-2.8971
InAsPt3,60.8234,45.3958,-15.4276
Dy2HoCu2,14.5755,18.0121,3.4366
Er(TmCu)2,16.099,19.7026,3.6036
Cd2IBr,16.6751,17.5181,0.8431
Li4Ac2CdSn3,20.744,21.9046,1.1606
Ac2PaSb,60.2204,60.1725,-0.0479
TlAgMoBr6,18.015,17.6999,-0.3151
MoPBr,21.6472,18.0323,-3.6149
Y4Er2Mg,17.904,18.6847,0.7807
Tl2(PdAu)3,36.9909,38.2246,1.2337
Ac(CeSb)3,32.8454,32.4366,-0.4088
CeAgSb2,30.9475,28.1711,-2.7764
SrPmFe2,21.6592,20.6774,-0.9818
Be2MoBr,7.8565,6.5431,-1.3134
TlInCu2Pb,27.9557,28.8721,0.9164
Pr(CrSb)2,13.9204,11.9921,-1.9284
YErTeO2,22.7208,22.715,-0.0057
TbDy2,27.1363,30.3018,3.1654
ScCrSb2,34.0952,28.6118,-5.4834
Pr2CF,13.6252,11.2967,-2.3284
Sc3TlPd6,15.821,15.4494,-0.3716
Ce3YEr3Te8,32.8817,32.5535,-0.3282
NaNb2GeW,72.5472,60.5916,-11.9556
CeScCd2,16.9094,19.1659,2.2566
CeScCd,16.2824,18.9637,2.6813
In2SiTc2,41.698,36.1464,-5.5516
Cr3MoBr,23.1699,20.4456,-2.7243
In2SiTc,37.3709,32.204,-5.1669
CaSb3Pd,34.0148,27.4514,-6.5634
YEr3(TmIr3)2,34.4992,37.2845,2.7853
Ce2ScSb2,23.3593,22.1424,-1.2169
LiCuW,16.673,19.204,2.531
Cu3W,14.9256,13.4733,-1.4523
CeSc4Ag5,19.9504,18.2529,-1.6975
CePdC,27.3572,26.1499,-1.2073
GeRu2F2,17.2685,18.4827,1.2142
InNiAs3,19.184,16.3767,-2.8073
DyHfRu4,38.9773,34.7425,-4.2348
Y3Er4Tm5,26.0481,27.2974,1.2493
CaReO4,9.3402,11.8512,2.511
YEr2Zn3,13.3105,14.6305,1.32
Ca2ScMnNb,54.7307,42.8428,-11.8879
MoAs2RhBr,20.0967,17.8496,-2.2471
Rh2Pb4Au,50.7707,47.7795,-2.9912
Re2BiTe,45.1899,47.0576,1.8677
TbPr4(YEr)2,11.8042,12.6167,0.8125
NpCdO4,13.3369,16.8515,3.5146
CsSr2Mo,17.6619,18.8484,1.1865
CeLuPd2,22.8118,25.6196,2.8078
Li2LaNb,49.1204,39.1852,-9.9353
YEr(TmIn)2,20.2517,21.9283,1.6765
Ce2GdPd,23.9884,26.6132,2.6248
Ni8Sb,12.5595,13.0517,0.4922
Cd2GeRu,16.4384,18.2465,1.8081
PmCdO4,6.3695,7.8568,1.4874
Y2ErZrRh4,35.3261,28.9129,-6.4133
KSrBi2,30.5063,32.7816,2.2754
Tl2Ga2Sb,32.7908,32.2878,-0.5031
HfV3Cd,111.559,84.004,-27.555
NaFeTcP2,37.3446,31.3528,-5.9918
Sr2BeBi2,27.5822,25.9743,-1.6079
Li2YCd3,9.3924,11.3581,1.9657
HfVCd2,73.7515,57.8631,-15.8884
SrAcPm2,32.0949,34.542,2.4472
Sc2Cr2O7,41.1509,34.8062,-6.3447
CeNi2Pd,18.8676,19.4004,0.5327
SiNi2As,19.5708,17.8161,-1.7547
AlSi2Ru,25.4563,20.1927,-5.2636
CeY2ErS6,40.2614,32.3873,-7.8741
Ce2HfPb,61.5302,52.383,-9.1472
AuI3Br,25.8709,26.1571,0.2862
RuPtO2,27.483,19.7551,-7.7279
Li2CuSb,9.9726,10.8003,0.8277
TcPt3I,78.0899,58.4093,-19.6805
Dy2Tl2Au,40.3491,42.6198,2.2707
Y2ErPuO8,21.0513,20.7279,-0.3235
CeY4Er7,23.9173,25.1094,1.1921
AcCoO4,4.5105,8.3968,3.8863
Pm4YEr7,26.6319,27.8979,1.2659
LiSm2SnO5,28.0368,23.2797,-4.7572
Tc3NiI,63.8634,53.5147,-10.3486
BaLa2RhO5,28.6644,24.609,-4.0555
Al2Ga2Ru3,10.9839,12.4155,1.4316
CePdBr6,12.997,13.767,0.77
NaLuPb2,40.589,40.9913,0.4023
Ca2CrTc,38.1648,31.3176,-6.8472
CaCr2Tc,39.0937,32.8377,-6.256
SrBiC3,52.2917,39.5449,-12.7468
NaNiRh3,37.5174,27.9857,-9.5317
SrIn(BiPb)2,37.5685,39.1237,1.5552
CaCr3Tc,34.8203,27.626,-7.1943
Sr4Hf2Bi,57.1898,45.3183,-11.8715
Cu2PtPb,34.9098,32.2165,-2.6933
YEr(InRh2)2,35.0256,27.9043,-7.1213
Sr2InBiW,35.652,30.6581,-4.9939
K(SrBi)2,25.77,27.7025,1.9325
SrBi2C,47.0102,42.7645,-4.2457
Y15Er4Th,19.5924,20.919,1.3266
SrTaBi3,49.2817,45.7357,-3.5459
ZnSb3Br,38.0235,32.4303,-5.5931
BeNb3Sb,94.2604,75.7757,-18.4847
SrSnBi3,36.0669,37.8541,1.7873
NaMoRh2F,31.0073,23.4754,-7.5319
Sn3PbAu,33.3441,33.8915,0.5474
Th3SbSe,36.8204,38.6879,1.8675
SrBi2W,44.3606,40.4819,-3.8786
TmTh(SiPt)2,49.7405,40.8301,-8.9104
AcDyAl2Pd5,19.9669,21.7016,1.7347
CsNb2AgO6,25.0143,19.175,-5.8393
Tl2ReSi,40.2142,39.785,-0.4292
Tl2ReSi,40.4058,39.785,-0.6208
ScTi3N4,21.9505,21.7022,-0.2483
SrTmSc,16.6026,18.9726,2.37
NaSrReBi2,44.4275,39.294,-5.1335
SrBiOs3,41.9318,43.0057,1.0739
ScMo2Au,29.9372,31.8787,1.9415
NaCd2Ir,26.7311,27.078,0.3469
K2SrBi,20.6876,21.6526,0.965
SrPmBi2,36.193,38.0835,1.8905
Hf3MoAu,99.5198,73.983,-25.5368
BaSc2Re,34.9892,28.5616,-6.4277
TcIrPb2,60.9723,58.6308,-2.3415
KCd2Bi3,33.1799,34.3091,1.1291
MoPOs,31.2223,28.6484,-2.5739
La4Sb2Te,47.7387,37.7034,-10.0353
Mo3POs,31.1401,24.8785,-6.2616
InTeBr,24.4192,24.4543,0.0351
CaTa2TiTe,27.2869,28.0055,0.7186
SrNbV2,104.1112,81.9901,-22.1212
SrGdInBi,28.8242,30.9495,2.1254
SrTmBi,28.7464,31.8399,3.0935
Zr2VPb,94.4954,80.1777,-14.3177
Sc2CrSb,25.5088,21.0297,-4.4791
RbSrBi,22.8724,23.8177,0.9453
Zr3VPb,96.7085,80.8849,-15.8236
BiPRhS2,45.0908,39.0543,-6.0365
Ru3PtO,35.2647,28.3612,-6.9035
CsKSrBi,25.8625,26.6379,0.7754
AlNiAu,18.5428,20.8673,2.3245
TmGa2Ru,10.8688,13.3761,2.5073
Sr(BeBi)2,25.6463,24.5401,-1.1062
Sr(GaFe)2,15.7214,12.9472,-2.7742
LiCrMo2,10.4593,12.9171,2.4578
Pr8Th,3.1157,4.6487,1.533
CaCrMo2,21.0605,20.4015,-0.6589
Sr2CrBi,20.9205,21.9029,0.9825
AlFeRu2,26.4789,21.5492,-4.9298
LiCrMo2,10.534,12.9171,2.3831
AlFeRu2,26.3991,21.5492,-4.8499
Ti(CuSb)2,16.8606,16.044,-0.8166
AlTe2As,36.8285,33.3393,-3.4892
AlFeRu,30.2897,22.2511,-8.0385
Sr3CrBi,22.5831,21.1937,-1.3895
Nb2NiTe2,68.7821,57.5215,-11.2607
AlTe3As,38.4231,33.2202,-5.2028
Li(HfRu)2,55.3227,42.6063,-12.7165
YAlSe2,43.1768,33.8595,-9.3173
NaHfIr2,57.0277,50.6727,-6.355
PrNd2Zr,35.8301,34.6917,-1.1384
Ag5(IBr4)3,12.3329,11.181,-1.152
AcAl2InPd5,19.361,20.6658,1.3048
TaHgAu2,33.0105,34.9567,1.9462
Dy2Tm2Tl,29.4331,32.2958,2.8627
Sb2PbAu,47.6055,44.66,-2.9455
CuIO4,12.504,11.4501,-1.0539
PrAl2InPd5,12.4153,13.1664,0.7511
Zn(SbPb)2,37.572,35.6229,-1.9491
ThNbSe3,62.2894,53.7665,-8.5229
Y8Er6Sc,19.6156,20.9511,1.3355
Ba3Cu2P3,7.3171,4.6393,-2.6778
CsBa2RuO6,10.2576,10.2224,-0.0352
KP5,4.9559,6.2594,1.3035
LaErAl2Pd5,18.7393,18.7537,0.0144
SnPb2Se,39.9241,39.3084,-0.6157
WSI3,34.3473,31.2803,-3.067
Pr(Cu3Ge)2,6.0403,7.3069,1.2665
ThPaSe3,33.2126,31.8434,-1.3692
SnHgSe,22.7392,20.1446,-2.5946
Sn2HgSe2,27.4063,23.4956,-3.9108
BeAlRu2,13.9314,16.0297,2.0983
Cs2ScIrO6,34.157,32.4335,-1.7235
FeNiMo,15.2893,12.9226,-2.3667
Y8Er6Tl,22.7385,24.066,1.3275
Ta2PtS4,56.0569,43.4472,-12.6097
Tb3Tm5,29.1325,31.1479,2.0154
CaAgRh,15.4991,12.5869,-2.9121
Na(AsPb)2,26.2707,26.5291,0.2584
Cs2ScTcO6,38.7606,35.4761,-3.2845
K4CaP2,16.495,13.9608,-2.5342
KCaP2,19.1863,16.6328,-2.5535
Ce2TmCuC,29.5498,28.4808,-1.069
NpPd,34.601,39.1813,4.5803
NbCuB2,41.5541,32.8374,-8.7167
CaNpSi3,21.0747,18.306,-2.7687
BaSr3Rh,9.2055,8.4825,-0.723
AcPrAl2Pd5,16.7923,18.0679,1.2756
Pm2Tm2Cu,23.4427,26.268,2.8253
KCa2,6.2777,7.1341,0.8565
SrTb2Nd,22.9419,25.6609,2.7189
VTe4,54.7955,47.2637,-7.5317
Re2TeRh,43.3679,42.0469,-1.321
Y3ErRu8,20.9413,18.9674,-1.9739
CaPm7,22.3581,23.5069,1.1488
Li2VTe,39.2729,32.9493,-6.3236
CePaSi3,19.8386,19.0112,-0.8274
CdGa2Ag7Sb2,28.8033,23.8573,-4.9459
AlAuSe2,32.22,32.0616,-0.1584
Ta2Nb3Al2,63.8638,54.4901,-9.3737
Pa2Tl2O7,11.8869,14.5729,2.686
Cd7Bi,23.6486,24.5326,0.884
PrSbF,8.6366,9.7103,1.0737
PrCuSi3,28.4142,22.5289,-5.8853
AlTlOs2,34.8124,37.7946,2.9822
PuZrZn17,15.6637,15.5578,-0.1059
Sr2Tl2I,27.366,29.1221,1.7562
CeCd7,19.8662,20.6085,0.7422
AcDyO4,13.1312,15.1998,2.0686
Pr2Nd7Dy2,15.2002,18.2188,3.0186
Rb2SrV,35.2328,27.4591,-7.7737
ZrPaZn17,15.4383,15.2662,-0.1721
LaTa2As,33.7922,33.315,-0.4771
LaY6Er5,23.4931,23.7884,0.2953
Sr(CuBr3)2,10.5478,9.5502,-0.9976
LaTa2As,34.0035,33.315,-0.6884
Hf2Sc3Al2,44.8533,33.5183,-11.335
Er2Tm2Pb,29.7879,32.9331,3.1452
Al2TlOs,24.9929,27.2145,2.2217
ScTcRhO2,80.0722,66.9046,-13.1675
Pm4Pr3,12.2226,14.0432,1.8206
Zr2Sc3Al2,31.8351,28.4183,-3.4168
MnVCo2,60.7739,49.3795,-11.3944
BaSb2W,26.7735,25.3735,-1.4001
FeHgAs2,20.6533,18.3093,-2.3439
Y3Er3In2,22.2235,22.5772,0.3537
SrAlIr,9.5454,10.3764,0.8309
Pa2Zn2O7,22.1434,19.3802,-2.7632
NaSrSc2,9.4401,11.3245,1.8844
Co2AsOs2,28.8787,27.9116,-0.9671
RbNa2IrPb,29.8519,28.3487,-1.5032
ScCo2As,19.4053,16.1923,-3.213
CoAs3Os,20.0964,19.4189,-0.6775
Zn2TePt,36.6691,30.2221,-6.447
Pr(Ga2Au)6,20.2564,20.7347,0.4783
Zn2TePt,36.7438,30.2221,-6.5217
SiPtBr3,30.1588,22.3337,-7.8251
ZrSc5Al2In,12.0806,11.9716,-0.109
SrTc2W,61.5162,48.3479,-13.1683
TlAs2PbBr,33.4692,32.1381,-1.3311
Sm(Y2Er3)2,23.6343,25.5053,1.871
YSbRh,15.3695,14.2383,-1.1311