Formula,E_hull_DFT (eV/atom),E_hull_ML (eV/atom),Delta (ML - DFT)
Sm(CuAu2)4,32.8605,34.384,1.5234
Sr3Cd5Ge2,16.0213,14.8789,-1.1424
TaGaSb2,54.7629,43.8478,-10.9152
Pm2CoAsO6,11.4547,12.4914,1.0367
Sr2Ho2Mg15,6.4073,7.5052,1.0979
Sc3TaSb,64.8153,53.505,-11.3103
Y2BiTe,30.2268,32.1244,1.8976
CrPRu,14.9112,15.4404,0.5292
Ac2PuCoO6,10.2549,15.0293,4.7745
ScMnRhAu2,50.7832,44.1464,-6.6368
Sr3CaBi3,26.8483,27.6579,0.8095
CeYS2,21.6736,21.3403,-0.3334
CrPRu2,34.6168,33.8352,-0.7816
Sr12TlGa6,13.5843,14.1975,0.6132
Rb2CrMo,6.2318,7.6941,1.4623
TiCuPb3,34.5331,35.7994,1.2663
TmU4In15,30.0674,31.4208,1.3534
Ba2VPbO5,12.4158,11.0019,-1.4138
Cd4P12I,8.8668,9.3666,0.4997
Y2NiTe,73.8977,64.6061,-9.2916
FeGeTe,12.3883,16.3826,3.9943
Y2HfTe,46.9298,39.3534,-7.5763
Sm4Te3Au,32.9704,33.3459,0.3755
ZrSiSb2,50.7927,38.891,-11.9017
PuZn(CoO3)2,14.3378,14.5219,0.184
DyCr2GeO6,6.8194,7.0981,0.2787
ErCr2GeO6,7.7743,7.3439,-0.4304
TiRuCl2,2.6259,4.7761,2.1502
Cs2NpVO6,23.3372,21.2914,-2.0459
HfCr2InO6,21.8405,17.6918,-4.1487
Y2(ScSe2)3,28.4284,23.997,-4.4314
InF,1.0063,3.585,2.5787
Cs2Sr4P,14.9431,16.0495,1.1064
K2AuF,18.8811,18.532,-0.3492
LaHSCl2,22.5214,16.1017,-6.4197
Cs3Y3ThS8,40.436,33.4302,-7.0058
HoHfCr2O6,21.3843,16.2578,-5.1265
GaCo(GeO3)2,3.5261,3.6634,0.1373
Co2BiSe,29.2162,28.6285,-0.5877
Tb3PmPrSc,13.5917,16.0713,2.4796
Ba2AcSb3Pt4,54.8792,40.2331,-14.6461
Er5InGa2,18.0242,21.402,3.3778
Nb3BiPt,114.6227,92.263,-22.3597
Co2BiSe2,32.5558,29.7925,-2.7633
NdTmIn6,21.3804,22.6775,1.2972
CeHo2Tl,32.9507,35.1127,2.162
TbZrInCu,37.7169,34.7741,-2.9428
Fe2CoHgPd,18.7397,14.3006,-4.4391
Rb3Zr,27.0287,20.5444,-6.4844
Ce2ScTi,15.2467,18.9262,3.6795
AcPmErPb,42.7469,45.8033,3.0564
ZnPb,27.8556,30.0907,2.2351
In2Ag2Bi,28.4696,27.4152,-1.0544
ZnIrBr2,23.022,19.7828,-3.2392
Ac2TmCoO6,6.9922,11.4517,4.4595
CoPb2WO6,10.7985,13.5381,2.7396
CuW,22.9874,28.4789,5.4915
Ga2SnBiO8,34.2263,29.0834,-5.1429
P(IBr)2,16.8837,16.1954,-0.6884
CeCr2FeO6,9.9221,8.7213,-1.2008
Y2ScSe,19.4674,20.7038,1.2364
Tb2NdSi2,15.2635,16.0479,0.7844
PbI,29.7121,32.4349,2.7227
Ba2CuRhO6,0.0,0.0701,0.0701
HfCr2FeO6,20.6683,15.7006,-4.9677
Pr2CrMoO6,10.6756,9.9921,-0.6835
RbThMg,21.7763,23.0873,1.311
SmCr2GeO6,6.4406,6.9269,0.4863
Cr2SnGeO6,25.1683,20.5648,-4.6035
NbCr(PbO3)2,25.5674,23.3009,-2.2665
AcAlPt3,60.4745,45.0106,-15.4639
Ca9B2(CCl2)4,11.4155,7.9237,-3.4918
AcZrCu4,31.7197,29.9638,-1.7559
ErLuTh,43.0117,47.1099,4.0982
Ac4Te2Pt,60.7993,56.9816,-3.8177
Cs2CeBeO4,3.4111,5.2931,1.882
RbMo2P,12.3343,9.8421,-2.4922
AcCr2SnO6,30.1425,25.9549,-4.1876
CrFe2PbO6,13.5018,11.6881,-1.8137
Sr3Tc5N12,2.593,0.0,-2.593
Cd2BiSb,34.5782,32.8119,-1.7662
YCr2SnO6,32.6435,26.7686,-5.8749
ZrZnGaCu,31.7059,26.7208,-4.9851
Ta5Pb,39.5748,44.7807,5.2059
Pt2RhSe,63.6244,45.0372,-18.5872
Zn2Hg2Br,4.4201,5.2686,0.8485
RbSi2Rh,15.0798,9.7162,-5.3635
Cd12Sb3P5,11.6284,11.7611,0.1327
AcHoPt,54.1303,48.4518,-5.6785
Pm2CdGaO6,12.9283,14.2396,1.3113
AcSm2Pt,44.9018,31.1008,-13.801
Pt2RhSe,69.3044,45.0372,-24.2672
RbMoP3,17.857,12.3501,-5.5069
AcPrSiPt,40.3582,33.8789,-6.4793
LiTbDyPd,17.6505,20.4691,2.8186
ReAg2Te,32.8033,34.1665,1.3632
LaW3,32.3047,37.2928,4.9881
BIrC,41.8045,36.9519,-4.8526
Zn2TeP2,13.137,13.2689,0.1319
Lu2ZrI,46.867,43.6757,-3.1913
ZnInTe2,28.0042,27.0062,-0.998
TlGaAgSe,31.5247,29.3359,-2.1888
LiBe2Sb,13.3829,7.9217,-5.4611
PtPb2Se,56.2637,48.9349,-7.3288
Pm2GdAu,31.1934,34.4143,3.221
Tm6SbC2,38.5635,34.9699,-3.5936
ZnIn2Te,22.3488,22.4952,0.1464
Lu2TcAg,47.6102,45.1731,-2.4371
Ca3HgRu2,7.9981,10.1468,2.1488
Ba2CuReO6,3.8039,5.9922,2.1883
TlAg2Mo,32.7511,30.8783,-1.8729
Ge2BiPbO6,5.8965,7.5695,1.673
CdGe2PdO6,4.8524,5.6523,0.7999
PaCu2RuO6,11.2697,12.1867,0.917
AgGe2PdO6,6.3698,6.0904,-0.2794
Ba2UCuO6,7.7635,8.6191,0.8556
BeSn3Se,25.6078,21.2045,-4.4033
Ba2PaFeO6,8.7521,8.5784,-0.1738
RbAlSn,8.9448,9.4939,0.5491
La(H3Au)2,12.6144,12.0744,-0.5399
YZr3Os,72.9305,59.907,-13.0235
SmAuN,17.1715,21.3103,4.1388
GaCu(AuO3)2,13.0441,13.6548,0.6106
Sr3As5S12,27.4793,16.6182,-10.8611
CsLi2P,12.0127,10.2742,-1.7385
YZr2Os,64.1428,55.7245,-8.4183
BeCrP,22.1128,20.1107,-2.002
SmBe2GaAu4,27.5547,29.6167,2.062
AcP2PtRh5,44.667,33.8685,-10.7986
Sm2AuN,23.5551,27.154,3.5989
Sm2CuPtO6,14.1178,12.4263,-1.6914
CuTc(PbO3)2,16.1144,16.6868,0.5724
CuBi2RuO6,9.3925,11.4878,2.0953
CuSn(AuO3)2,26.2788,23.3199,-2.959
LiSm2Hf,48.9811,41.0871,-7.8941
Cs2Na2Cu,19.7679,18.2546,-1.5133
RbAlSn,0.0,9.4939,9.4939
Ac2TbSb4Pt3,59.4801,47.2802,-12.1999
Tb2PmEr9,28.5434,30.244,1.7006
SiNiSe,23.553,19.8949,-3.658
Pm2TlGaO6,16.0635,16.9275,0.8641
RbAlSn,6.3351,9.4939,3.1589
RbTeSe2,34.9374,30.1016,-4.8357
Y2ZrOs,43.9711,40.6312,-3.3399
Ac2La2Pt3,70.5271,49.1947,-21.3324
Ca(HfP)2,62.4591,45.7344,-16.7247
YZr2Os,64.0252,55.7245,-8.3007
Rb2TeSe2,24.6916,20.0421,-4.6495
Tm4BiC,33.9646,34.8491,0.8845
Sm2ThSc,30.3448,32.9302,2.5853
Rb(MnP)2,46.5479,36.1137,-10.4342
InNiBiP2,22.2531,21.782,-0.4711
NaMnIn2Sn,37.9691,35.2358,-2.7333
NpIn(FeO3)2,16.849,16.1837,-0.6653
HfIn(FeO3)2,24.0748,19.0038,-5.0709
HfFe2PbO6,24.7869,19.718,-5.0688
Na(LiS)2,23.3121,16.9945,-6.3176
Fe2BiSbO6,21.6236,19.6433,-1.9803
TaBe2Cd,19.9292,19.2039,-0.7253
CdFe2TcO6,16.8245,14.5901,-2.2343
ZrFe2SnO6,35.7849,28.5761,-7.2088
Na(LiS)2,23.2896,16.9945,-6.2952
PmFe2TeO6,6.0868,5.8355,-0.2513
ZnIn2Re,33.464,28.4948,-4.9692
FeGe(BiO3)2,8.0742,9.9069,1.8327
AcFe2WO6,17.3436,17.3862,0.0425
FeCo2WO6,12.6109,11.8975,-0.7135
AcFe2TcO6,20.9488,19.5491,-1.3997
Ac2AlTlPt,49.0728,46.5234,-2.5494
AcTlSnPt,55.922,50.9248,-4.9972
Tl2FeW,33.1544,35.5975,2.4431
Ac8Ru3PtCl4,43.6252,40.4769,-3.1483
SrZnBr2,9.1156,11.4125,2.2969
NaEuAu2,36.3055,36.4867,0.1812
Ac6SnGe2Te3,44.8893,45.9231,1.0338
TbTh2(TeAs)2,36.661,37.4957,0.8347
Ce(Ga2Tc)4,35.3708,32.0114,-3.3594
LiNd2Lu,20.9697,23.7627,2.793
Be2TeW,26.2177,22.0142,-4.2035
FeBi2PdO6,15.1178,15.6953,0.5775
Rb2NbPd,38.3962,33.1098,-5.2865
Mg(H3Rh)2,4.0911,1.7657,-2.3253
ZnSb2W,29.8381,28.1554,-1.6828
CeY3N4,48.349,40.4338,-7.9152
BeTeW,31.3562,30.8907,-0.4655
RbSm2,17.6091,19.357,1.748
InSnRu2,18.1841,21.1783,2.9942
La4SiPtBr2,41.2886,28.2368,-13.0518
SrSn2P,12.6079,14.1551,1.5472
NaLiGe2,10.7857,11.2106,0.4249
La2SiTePt6,69.1995,47.0731,-22.1264
LiWBr2,25.1118,24.4032,-0.7085
Si4PRu2,20.105,14.5976,-5.5073
AcBeGe2Pt,33.8962,29.6996,-4.1966
Ac2Ge3Pt4Pb,55.9153,44.9875,-10.9277
PaGa2AgO6,16.5929,15.8989,-0.694
NaGe3Br,13.7411,13.338,-0.4031
LiTm2Ti,16.8424,19.6437,2.8013
CdSn2Ru,19.5203,21.7271,2.2068
Ac2GaHgO6,19.03,20.2034,1.1734
La2NdSi3Pt4,52.0363,34.7077,-17.3286
Sr2GaPbO6,8.7799,10.295,1.5151
Zr2SbP,60.8378,49.0781,-11.7597
SiTcNi,37.772,34.2348,-3.5373
Sr2GaWO6,17.5216,16.0533,-1.4683
Sr2GaPtO6,12.0734,10.8225,-1.2509
GaTe(PbO3)2,16.9966,17.1283,0.1317
HfAsRh,50.1948,37.0382,-13.1566
PmZnHg3,4.4074,6.6499,2.2425
SnAsIBr2,15.5217,15.652,0.1303
SiP3Pb,18.9869,18.3208,-0.666
SmPdAu,24.0403,28.3958,4.3555
LaCrRe3,38.0506,35.8956,-2.1551
Ac2PuHfO6,22.5395,23.0453,0.5058
Sr2TlGeO6,8.8734,9.3751,0.5018
YTeBr,21.7149,23.746,2.0311
LiBeAg,12.0685,10.4753,-1.5932
YMn,4.3049,6.6074,2.3025
Ta2SbP,32.634,31.7836,-0.8504
TlCuW2,27.5746,33.4683,5.8937
PrSm2Y,15.5759,17.7042,2.1283
K2SrO3,0.9067,3.1207,2.214
Sr2GaSi2,30.3721,21.2485,-9.1237
La2SiPt,51.5482,34.5798,-16.9684
Cr3ReGe,27.3828,22.3813,-5.0014
ZrCuGe3,26.3607,23.4043,-2.9564
H6IN2,-0.0,0.0,0.0
Tc2IN,55.262,47.6868,-7.5752
NbZnSe2N,56.9396,45.7887,-11.1509
CsIn2Rh,28.7645,26.1175,-2.647
GeAsPt2,49.517,36.4537,-13.0634
In2SiAu,25.6397,24.8494,-0.7903
Zr3BeCu,64.5309,50.2061,-14.3248
GeAs3Pt,26.8286,21.2936,-5.535
Zr(CuSi)2,24.1017,19.335,-4.7668
AcCu(SiPt)2,46.5432,35.1003,-11.4429
Sr(PtO2)6,29.5385,20.0817,-9.4568
Sr5(ReN3)2,42.816,40.387,-2.429
Sr(InPd2)6,17.7954,18.8621,1.0667
Hf2Ru2Pt,71.8691,52.4378,-19.4313
Sr(LiSn2)6,13.7652,14.477,0.7118
EuHgAs,12.9187,13.7279,0.8092
Ac2La(SiPt4)3,71.6352,49.9004,-21.7348
ZnCdBi2,34.1905,35.0637,0.8732
ZnSb2P,25.6252,21.5129,-4.1123
Ce2Ga3Cu4Si,13.6325,12.3822,-1.2502
Y12Er2Tm5,20.0552,21.094,1.0388
Zr2BeCu,54.9826,43.7186,-11.264
Si2OsAu,30.0476,28.2651,-1.7824
Sm2Ge4Pd3Au,18.0206,19.7812,1.7605
Sc2TlW,19.7013,23.7514,4.0502
NaAc2Pm,44.7535,46.1956,1.4421
ErLuTl,37.7959,40.2441,2.4482
In2CuTcGe,30.7968,28.4562,-2.3406
ErTh2Sn9,28.59,29.8465,1.2565
Na2Ge2Te,22.0406,20.3853,-1.6553
SrEr4Tl5,38.1667,40.028,1.8613
ZrNbS3,81.9612,62.2426,-19.7186
LiBe2W,15.9465,15.1348,-0.8117
Zr(BeCu)2,24.3115,19.118,-5.1936
Ac2PmSn3Ir4,38.3907,40.7909,2.4002
YMn,49.0781,6.6074,-42.4707
YMn3,78.3648,64.3804,-13.9844
La2Si3IrPt12,69.8958,47.129,-22.7668
NaLa2(SiPt4)3,68.7928,45.2932,-23.4995
YMn3,78.2486,64.3804,-13.8682
KTlSn,25.0975,27.301,2.2034
Sc2InFe,29.4815,23.4154,-6.0661
Tl3PbAu8,48.6204,49.6575,1.0371
BaLiSn2,8.8811,10.0274,1.1463
La2Th(SiPt4)3,70.9602,48.1987,-22.7615
RbNd2PtO5,7.5026,7.419,-0.0836
YZr2Be,56.2444,44.1907,-12.0537
La2CoCl,22.4732,16.5324,-5.9407
Y(ZrBe)2,39.1446,31.4295,-7.7152
K2TcPt,48.6588,41.0102,-7.6486
InFeSe2,32.1901,25.417,-6.7731
LaHfTaO6,30.4961,25.7232,-4.7729
YMn2,71.1582,60.1025,-11.0557
FePPt,52.4982,40.8042,-11.694
ZnGeMo,5.5881,9.8229,4.2348
Cs2CaPaO4,24.1208,24.4029,0.2821
SmPd7Au12,36.1584,37.4352,1.2768
KAl2Zn,6.5954,7.1827,0.5873
Os3WI,91.5471,76.2675,-15.2796
Hf2TlCu,86.3683,63.4167,-22.9516
Sm3PdAu4,34.4653,36.8511,2.3858
Sn3MoI,34.3305,28.9698,-5.3607
AcWBrO4,10.3286,13.4143,3.0857
ReSi2Au,29.9616,28.5173,-1.4443
ReSiAu2,37.8838,38.4711,0.5873
Sr2AlIn3Ga4,12.774,12.9682,0.1942
Sm2Pd8Au3,25.3206,27.0183,1.6977
Nd2Si2Ge,0.1182,2.0468,1.9286
La2TaSi4Pt3,45.8135,31.0243,-14.7892
SnMoRu,38.5179,32.4904,-6.0276
Sr2AgPd2Au5,28.8043,30.0778,1.2735
Pu2MnPt,83.2309,72.2752,-10.9557
KUCd2O6,4.4972,6.9365,2.4393
Cs2HfCr,52.0143,40.6929,-11.3214
YMn6,87.8318,71.7307,-16.1012
La2Si3NiPt12,67.7446,44.8958,-22.8488
Pu6SiGe,56.7852,57.8551,1.0699
YMn,49.6192,6.6074,-43.0117
Li2Ta2RhSe6,36.7686,30.1712,-6.5973
Hg(SbPb)2,39.018,35.4117,-3.6063
NiAg2,23.1775,20.5667,-2.6109
CaPrSc,7.493,5.4511,-2.0419
CaPm3Se4,42.6296,36.5675,-6.0621
CoAgSb,29.3494,24.2662,-5.0832
YMn,49.2108,6.6074,-42.6033
Mg2AlReO6,10.7267,10.7279,0.0013
SnMo3W,36.1768,32.6951,-3.4817
Os2WI,93.626,78.4412,-15.1849
Ba(Na2Si)2,18.2246,13.8943,-4.3303
SiNiW2,26.3482,27.0849,0.7367
RbTcNi,28.9669,26.5161,-2.4508
CaPuPbAu,43.7603,45.89,2.1296
KTc(PbO3)2,20.2966,19.8324,-0.4643
Zr(CoNi)2,47.3651,35.4489,-11.9162
CdMoW,26.0438,29.2665,3.2227
U2Al9Cu,14.5516,15.9568,1.4052
Ho5Tc,39.0325,39.758,0.7255
LaZn(SiPt)2,44.2706,29.9735,-14.2971
Al2CuTc,29.194,26.0467,-3.1473
SmPd7Au3,26.4051,27.7968,1.3917
Al2CuTc,29.0666,26.0467,-3.0199
AlCuTc3,60.565,51.393,-9.172
Pa2Co4Ge3Pt,27.114,26.4398,-0.6743
Sm(Pd2Au)2,26.7677,29.0409,2.2732
ZnTeW3,35.5241,37.3059,1.7819
HfTcW2,78.3698,69.0286,-9.3411
HfTc2W,91.5998,77.4243,-14.1755
Sm(PdAu2)4,36.2255,38.0078,1.7823
Tc2AsPb,62.3292,58.1597,-4.1695
SmSnPdAu,29.9131,29.8869,-0.0262
TcNiRh,41.3306,35.7949,-5.5358
ZrCu2Ag,35.8681,30.1849,-5.6832
NiRu2Pt,32.0447,28.0748,-3.9698
SmBiPdAu,35.5441,38.4838,2.9397
Ce2MnZn,39.2576,36.2027,-3.0549
BaRe2Sn,32.3779,31.9697,-0.4082
CsBeRhN2,34.7243,27.4619,-7.2624
RbNb2Ag,75.938,61.2166,-14.7215
LiGdSn,1.5452,6.2094,4.6642
Mg2MnAsO6,29.4113,26.8487,-2.5626
Gd2Al2I,10.5338,12.3905,1.8567
Sm2Ga4PdAu3,27.8617,27.5343,-0.3274
Mg2MnNbO6,41.2075,37.2119,-3.9956
PrGdO,13.7918,12.3288,-1.463
Bi2AsPt2,54.6903,44.5986,-10.0917
TlReNi4,32.4934,27.3421,-5.1512
Rb(AlRh)2,20.9773,15.7073,-5.27
Cu3AsOs,15.6472,17.0193,1.372
Yb3Pd2Ru,25.6202,27.8751,2.2549
Ca2YMn,36.0998,29.0654,-7.0344
CuNiBr,13.0601,12.7563,-0.3038
NaLi2YP2,19.6512,14.1159,-5.5353
TaIn2Sb,31.0577,30.3293,-0.7283
Tl3AgTe3,41.1932,39.8517,-1.3416
TaIn2Sb,30.7463,30.3293,-0.417
Tb3Tl3Ag,33.681,36.0839,2.4029
TaIn2Sb,30.6275,30.3293,-0.2982
MoOsO2,22.3957,23.3321,0.9363
PrSmZnAu,19.7157,20.8913,1.1756
Pm2PuBi3,46.8487,49.6601,2.8114
TaInSb2,36.8129,33.0492,-3.7637
AcMgZnPd3,17.0076,19.6366,2.629
PrSmGeAu,19.9235,21.615,1.6915
Tl2IrAu,48.6034,50.3729,1.7695
PrSmGeAu,19.845,21.615,1.77
PrSmPtAu,39.7321,32.8298,-6.9023
Tb3AgPb3,33.5905,36.3547,2.7642
Tl(NiRh)2,27.0505,24.0879,-2.9626
CuNiBr,12.789,12.7563,-0.0326
SrMo2Pb,25.1559,27.1874,2.0315
CaY2Mn,38.3023,32.711,-5.5913
NdSbPt4,70.6079,50.0611,-20.5468
PrSm2Bi,24.5922,27.0539,2.4617
As2PbWSe,46.4826,43.364,-3.1186
Tm3AgSn3,21.3223,24.0249,2.7026
Tm2ThZr,56.6186,54.7128,-1.9058
CuNiBr4,11.7221,11.568,-0.1541
CaY2Mn,38.3296,32.711,-5.6186
Na2PaCoO6,11.1825,12.5867,1.4042
Ba(RuRh)2,44.1439,34.4678,-9.6761
TlNi4Ru,15.5783,18.0216,2.4433
Ce2Nd2CuSi4,18.5279,16.3244,-2.2035
Ac2SnPt,53.473,50.2266,-3.2464
CaYMn,46.2943,37.3186,-8.9757
Tl(NiRu)2,13.5697,17.8261,4.2564
Na2PuInO6,8.6734,10.6955,2.0221
NdTl(TeO3)2,10.4818,10.1701,-0.3117
ZrCuMo2,38.1992,32.6449,-5.5543
Gd2RuRh,41.4847,37.3128,-4.1719
LiPr2(SmAu2)2,26.3337,26.6942,0.3604
AcTbNd2Ho,29.2635,32.9257,3.6623
ZnP2CS,28.9794,24.0157,-4.9636
Ca2YMn2,49.0449,39.4091,-9.6358
CaYMn3,68.5251,54.1078,-14.4173
BaY2Be,35.3726,27.9976,-7.3751
CaAsRu,13.6298,13.6169,-0.013
Cs2NdPtO4,14.0593,14.2858,0.2265
K2MnPb,44.4795,38.8704,-5.6092
Cs(CuBi)2,26.5325,28.5172,1.9847
Tl6Hg2PdAu,36.9334,37.8602,0.9268
NaAcGePt,46.5719,40.2618,-6.3101
PrSmGaAu,20.4774,22.0268,1.5494
BaPb3Au,40.6451,41.8914,1.2464
RbAlV3,80.6833,62.0626,-18.6207
SmGa2CuAu5,32.2086,32.5453,0.3368
ZnSn4Ir,20.5017,19.4558,-1.0459
Ba2CaNpS6,33.882,26.8049,-7.0772
Ca2PCS,36.8057,27.0944,-9.7113
CaIn5Ir,25.0604,23.4039,-1.6565
TiGeAu,28.6046,24.6686,-3.936
ZnCd(GeS3)2,34.2325,25.1919,-9.0406
CaPmNdTh,30.1686,33.4015,3.2329
Ac2GaPt7,75.6954,55.4944,-20.201
KZrMo4,29.4366,27.5545,-1.8821
Ti(GeAu)2,28.6654,26.9159,-1.7495
Nd3Al3Cd,10.5704,13.7506,3.1802
Np2OsPd,49.9721,53.6315,3.6595
Pm2SmCuTe5,26.2865,27.053,0.7665
LiBeAu,17.0938,17.9391,0.8453
AgPt2C,62.4879,43.6559,-18.8321
Ce2YCuSe5,32.7723,27.6321,-5.1402
MoP3Ir,26.9772,21.411,-5.5662
Tm2MnCoO6,25.8129,25.9171,0.1042
Zr2ScMnS6,66.6548,51.7413,-14.9135
ZrNi2W,41.0539,35.211,-5.8429
RbAlGa2,5.4228,6.7353,1.3125
LiBeAu2,24.4338,24.8279,0.3942
Zn2FeW,18.0464,16.6917,-1.3547
AcTm2AlPt4,59.7323,46.3499,-13.3824
Ba2TlCu,12.5456,14.8018,2.2561
Sr3PuAs3,22.3542,18.5477,-3.8065
Zn2CoMo,16.1888,13.3019,-2.8869
ZnFe4W,10.2357,10.5639,0.3283
HoZrMnCu,58.2159,50.143,-8.0729
CaSiRu,21.9799,17.3239,-4.656
Ca2YMn,36.1533,29.0654,-7.088
Na3Tm2BiSe6,38.5441,33.3003,-5.2438
Ge2AsOs,18.1155,20.7733,2.6578
Ac2TmMgO6,6.3424,10.9866,4.6442
Cu(ReRh)2,28.8229,27.9492,-0.8737
CaSi3Ru,19.3278,12.9928,-6.335
Ho3BI3,7.5523,13.1031,5.5508
Li2SiAgTe4,25.964,23.5228,-2.4411
La5RuAu2N,44.9997,35.1669,-9.8328
Er2MgVO6,16.8342,16.267,-0.5672
CaSi2Ru3,23.329,17.4622,-5.8668
GaBi3Pb,45.7683,46.3424,0.5742
Cs2PrBr6,11.5044,12.5292,1.0248
CsPrBi,20.4802,23.0121,2.5319
RbNb2Si,70.5964,56.1026,-14.4938
YMn,57.09,6.6074,-50.4826
ScGeSbRh2,42.0343,29.4318,-12.6025
ZrPtC2,69.8486,50.6051,-19.2435
MoAuCl4,20.0668,15.6522,-4.4146
Rb3InP,11.4832,8.2845,-3.1986
Rb2InP2,13.6504,8.9694,-4.681
CaIrRu2,21.4179,23.5126,2.0947
Ca2IrRu,25.139,22.8033,-2.3357
Ac3(NiPt2)2,55.78,47.1582,-8.6218
KTlAs2,20.9852,21.6189,0.6336
RbIn3P,18.6815,15.9235,-2.7579
YIn2Si,32.2814,30.9002,-1.3812
PmNpMn2O6,64.4126,59.6663,-4.7462
Be2InFe,17.2746,13.6927,-3.5819
BeIn2Fe,19.7554,16.9564,-2.7989
Na2PuAsO6,11.8637,11.6728,-0.191
Ce4PS3,32.6894,29.4761,-3.2132
Be4InFe,15.2646,12.5691,-2.6955
SmDyGeAu,26.5005,29.5662,3.0657
ReAgPb2,44.9923,44.918,-0.0743
ZrSi3,29.4365,20.1133,-9.3232
Ac2ZnPd5Pt2,34.3731,31.263,-3.1101
MnNi(TeO3)2,33.1006,28.8463,-4.2542
Th4Sn2C,51.9416,51.2178,-0.7238
ErMn2SnO6,79.1083,68.8489,-10.2594
Ac2ThPt2,67.6043,59.0577,-8.5466
CaIrRu2,28.0612,23.5126,-4.5486
Ac(BPt4)2,71.0253,49.5527,-21.4726
HfMn2TeO6,74.5436,63.6093,-10.9343
YMn,49.6702,6.6074,-43.0628
Ac4PrPt4,66.8879,55.223,-11.6649
FeAs2Au,31.7672,30.1311,-1.636
La2ZrMnCu,61.9443,46.5531,-15.3911
PbC,24.9654,21.3655,-3.5999
AcPrPt10,78.837,54.3288,-24.5082
Ac4ThPt4,74.7276,63.9238,-10.8038
ZnReIr2,38.8579,41.9441,3.0862
BaY2F8,16.1338,14.2329,-1.9009
Sc2Nb(IrRh2)3,53.9327,39.906,-14.0266
ErZrPS,46.2607,44.061,-2.1997
SmSnAu4,38.7614,40.6845,1.9231
Ti2GeRu,9.7719,12.7426,2.9707
CsSi3C,27.3571,18.4744,-8.8826
AcPrPt2,58.6892,40.6559,-18.0332
LuInRu4,19.5912,22.5805,2.9893
Nd2MnCuO6,24.9326,24.959,0.0264
LiBeFe2,26.2642,20.527,-5.7372
YMg4Ni,29.6359,26.5678,-3.0682
CaY2PuAs4,19.3428,20.1217,0.7789
TlCdP2,16.2643,18.6852,2.4209
HfNp2ScAs4,46.6001,40.679,-5.9211
LiLu2Os,27.1593,29.8448,2.6855
AcMn(FeO3)2,39.8667,35.8876,-3.9791
Ac5Tl,62.1517,64.643,2.4913
Na2UInO6,8.3832,10.3646,1.9814
BeFeSb,31.4716,25.5204,-5.9512
LuBi3,44.8581,46.7038,1.8458
BaNi2Sb,17.4302,13.1661,-4.264
AcPr3Pt2,31.6248,24.7021,-6.9227
CoSiOs2,19.496,23.3058,3.8098
FeRu2Br,28.5686,21.139,-7.4297
Sm4AuS5,41.4777,35.0151,-6.4626
SrInRu,16.8436,18.7158,1.8722
SrPm5Pb8,39.4651,41.0983,1.6332
NaPm2SnO6,19.8224,18.24,-1.5823
NaPr2SnO6,20.2705,14.525,-5.7455
Pr2Ni2Ir,14.3398,13.6724,-0.6675
NaTb2WO6,11.5313,13.7517,2.2204
CsNa(TcO3)2,16.1781,15.2397,-0.9383
SiAgPt2,56.2496,38.8789,-17.3707
PPd3C,24.6279,21.6995,-2.9284
InTcP2,30.4501,27.8562,-2.5939
InTcP2,30.0505,27.8562,-2.1944
InReSn2,26.0664,28.887,2.8207
Be3CdFe,16.4703,12.6578,-3.8126
Gd3SnRu,24.6448,26.5168,1.8721
Rb3Y(NbS4)2,52.827,39.4727,-13.3543
MnCdCo,43.3636,37.194,-6.1697
Sm4Rh2Au,34.4351,33.307,-1.1281
ScTc2MoRh,82.9393,69.0168,-13.9225
Ac3AgPb3,49.939,52.6524,2.7134
TiTe2Pt,44.5129,38.0105,-6.5024
TiTePt,38.4972,30.9993,-7.4979
Ti2Si2Bi,12.5073,12.7837,0.2764
LuInRu,22.8155,26.3948,3.5793
SmGdOs4,40.2124,42.158,1.9455
Lu2InRu,25.4847,28.929,3.4443
CdTe2P,26.964,26.1758,-0.7881
Cd2MoP,22.9785,20.412,-2.5665
Cd2Pb,30.3745,31.5675,1.193
Cd3MoP,23.4305,20.4922,-2.9383
LiBeCl2,6.905,5.202,-1.703
LiBeCr,5.4805,4.8025,-0.6779
CdMo2P,21.877,20.669,-1.208
Na2EuPt,42.1502,33.1374,-9.0128
Ce3AgSn3,18.3225,20.9927,2.6702
Pm3AgSn3,18.46,21.7849,3.3249
Tb3AgSn3,19.3649,22.3365,2.9716
Ca2BeFe,26.0919,17.6117,-8.4802
Sr2CoSi3,22.3773,14.1651,-8.2122
CdCo2W,18.8057,21.1177,2.312
CdCoW2,20.8004,26.0083,5.208
K5Sr3I12,9.1028,9.8492,0.7464
Mn2IrRu,68.89,57.8267,-11.0634
CdInSe2,33.7552,29.5307,-4.2246
Te(Mo2Ru)2,24.813,22.5118,-2.3012
EuYPd,31.1628,28.5845,-2.5783
Ce4Pt3Rh,51.1492,39.2112,-11.9381
LaMgAl2Pd5,15.9003,15.307,-0.5933
Ce4Pt2Rh,46.1739,36.8021,-9.3718
Sn4PSe2,26.2212,23.7924,-2.4288
Nd2AgTe,29.9385,29.5941,-0.3445
Lu2ZrTl,53.9093,50.9824,-2.9269
RbIn2TeS6,38.3517,28.8414,-9.5103
MnFe2Ru,49.6516,38.6503,-11.0012
AcSnIO2,51.7468,44.5233,-7.2235
LiBeCo,11.1276,7.1471,-3.9805
Cs2NaAsO4,4.3266,6.7766,2.45
Cs2CrP,34.5974,30.0517,-4.5457
EuYPd2,27.494,26.3403,-1.1536
SmY4Th3Sb8,38.7708,35.4535,-3.3173
TaBe7,13.379,10.648,-2.731
Ac2TlSbS6,50.3226,41.211,-9.1115
CaNiI2,17.2962,15.9852,-1.311
Tl2Te4AsAu,40.8807,40.1468,-0.734
KNdAg2,24.841,22.3398,-2.5012
Dy2YHoHg2,18.0059,18.3881,0.3821
GdErGa2,18.3051,20.4909,2.1858
HfRuW2,69.13,58.3557,-10.7743
KNdAg,19.6449,20.2842,0.6393
Y4Er5Sc,20.7633,23.0632,2.3
Zr2TiV,84.7773,67.0626,-17.7148
AcSnTeO2,55.7007,50.5866,-5.1141
CaNd2Sm,19.9206,22.0508,2.1301
Er2In8Co,20.0484,21.3532,1.3049
ThMgTi,22.7355,25.7972,3.0616
YbCuPb,20.6642,25.141,4.4768
Na2PaMnO6,38.4456,36.3364,-2.1092
Fe2AgP,25.2063,21.4922,-3.7141
Na2ThPbO6,26.2764,23.7993,-2.4772
Na2IrRhO6,13.9802,12.3733,-1.6069
CdCoMo,13.8758,16.8457,2.9699
Ac2PtF,55.1218,49.7707,-5.3511
Fe2AgP,25.2041,21.4922,-3.7119
Na2PmIrO6,4.5339,7.5189,2.985
CdCoIr2,28.3802,31.7201,3.3399
Na2PmNpO6,4.824,8.3978,3.5739
Zr2AgSn,56.2748,48.6775,-7.5973
RbNa2OsO6,3.6183,5.6905,2.0722
CrPb2,32.8646,36.2024,3.3378
Pr(NdAs)3,0.0,0.0459,0.0459
TiBiTe2I,33.3847,32.5136,-0.8712
Cs2NaTeO4,10.1166,10.7105,0.5939
Rb(SnAs)3,21.0211,19.6209,-1.4001
ZrAgSn3,39.0544,33.9672,-5.0872
RhPb6,47.8412,46.9847,-0.8565
Be3Te,8.1813,11.2739,3.0927
AcPm2(AgSn)2,30.7255,31.1786,0.4531
La2CoCu,44.7261,33.6662,-11.0599
Sm2Si5Pt3,31.8291,21.172,-10.6571
Tb3Y7Er,18.9312,20.1303,1.1991
BePb,26.9846,29.5968,2.6122
Be3Te,7.691,11.2739,3.583
Y2(MgIn)3,13.221,13.054,-0.167
Na2TmUO6,5.3376,8.6602,3.3226
TmTh2ZrP4,32.9341,32.7766,-0.1576
Gd2YTl,30.9037,33.7004,2.7966
La2Co2Cl,17.165,14.2636,-2.9013
Ce2Sm2Si4Pt,27.2218,22.1818,-5.04
Be2Pb,14.3956,17.1754,2.7798
ZnInBr2,12.3263,13.8363,1.51