Formula,E_hull_DFT (eV/atom),E_hull_ML (eV/atom),Delta (ML - DFT)
TaTeMo,34.7585,34.4806,-0.2779
Hf4CuIr,103.7946,76.943,-26.8516
CoIr2N,78.8765,73.6499,-5.2266
Tb3NiSn3Ir2,27.9722,28.3652,0.393
NaY2(CuS2)2,42.8467,30.9497,-11.897
Zn2InSbP,17.5826,16.7023,-0.8803
Mg(ScP)2,31.8651,24.0764,-7.7887
Zr(NiRu)2,20.9035,22.9732,2.0697
Cr2ReBi,21.5399,23.8166,2.2768
YSe,29.3253,27.0403,-2.285
Sr(HfZr)2,92.3307,71.6231,-20.7076
LiSc2Au,10.1844,14.5523,4.3679
Sr(ZrAg)2,49.9494,43.5956,-6.3538
Ba2NiF,4.1207,2.1398,-1.9809
CuIrI4,23.667,25.0278,1.3608
Hf4InCu,100.1012,72.8727,-27.2286
Pm4InCu,16.2626,18.8658,2.6033
ZnCdGa3,10.9723,11.7289,0.7566
SrCaIn3,17.4443,16.9714,-0.4729
BeCoB,10.9366,8.3486,-2.588
SrIn2Ge,12.3617,14.2603,1.8986
CaZrSc2Rh,37.9003,28.0219,-9.8784
NaLi(PrTe2)2,21.7002,20.8019,-0.8983
SrCaIn,14.8612,14.1895,-0.6717
SrCrMo4,15.9414,17.0953,1.1539
SrInGe2,9.6315,12.5324,2.9009
Ta4CuP,30.0451,31.142,1.097
InSiBr3,14.0753,12.9411,-1.1343
In2SiBr,16.7294,15.8354,-0.894
PaBMo,27.7617,32.3123,4.5506
BaMn2Cu,52.8109,42.4789,-10.3321
BaMn2Cu,52.5989,42.4789,-10.12
InSi3Br,16.4331,12.3897,-4.0434
MnP2Pb,39.8743,35.9944,-3.8798
SrMnAg,48.5878,40.2533,-8.3345
LiPu(NiO2)2,18.4291,19.0374,0.6083
LiNi2SeO4,11.3153,11.5191,0.2039
CuSiW4,30.7668,32.6928,1.926
Mn2PPb,63.876,54.7212,-9.1548
CaTcW4,42.433,43.2162,0.7832
CuMoPt4,70.9062,50.5414,-20.3648
BMo2I,14.6196,17.2914,2.6718
YErHf2N4,53.7516,41.7166,-12.035
CaTl4Tc,50.7668,48.5326,-2.2342
MnAgSb2,55.3375,45.3852,-9.9523
Sr2Zn(BrO)2,16.9401,13.7354,-3.2047
K2CaIr,26.3288,20.7793,-5.5495
TbY4CuS8,40.6801,31.487,-9.1932
Sr3CaCu,11.9891,11.3744,-0.6147
YNbSe2N,73.1227,58.6876,-14.4351
YNbSe2N,71.815,58.6876,-13.1274
Ba(CrP)2,42.2795,38.4428,-3.8367
Y2GaSbS,28.1826,24.0234,-4.1591
Na3SnC,32.4193,25.3047,-7.1146
CuPt4Rh,63.0692,45.9321,-17.1371
Th4CuRe,43.9796,46.5059,2.5264
Zr5Ta3(Ni4As3)4,34.8886,27.4834,-7.4051
Tm5Ta3(Ni4As3)4,25.3953,20.4789,-4.9164
Ba2Pa3RuO12,11.3845,14.6712,3.2867
CuRh4W,40.1928,32.7032,-7.4896
HfPbSeBr2,58.9683,46.2103,-12.758
YTm(MoN3)2,12.8492,12.2597,-0.5894
CrSb,7.3799,5.4795,-1.9003
NaHfSe2,65.4467,49.0019,-16.4448
Ce2PrTi,12.8888,16.1518,3.2631
HfMo2PbSe,56.3421,46.2378,-10.1043
BiRh3Se,50.2846,39.803,-10.4816
PaCdBi3,50.0862,51.6665,1.5803
RuIO,25.5831,21.7713,-3.8118
LaScGaRh,28.0015,23.0533,-4.9482
Ta2Cr,50.29,43.737,-6.553
BeCu4Pt,22.3438,17.9336,-4.4102
BeCu4Ir,14.8104,15.3352,0.5248
Cs2SnAuF6,16.8823,16.4267,-0.4556
Tm4CuSb,23.9151,25.6031,1.688
La3Ce3Ni,29.7557,24.1976,-5.5581
SbAu3I,42.9303,41.6666,-1.2637
RbCoC2,37.4962,28.3524,-9.1438
FeRe2Ir,42.0667,40.6306,-1.4361
TaIn,21.5627,28.5004,6.9376
Lu2OsRu,30.9323,34.6155,3.6832
Ba3Cr2WO9,0.0,1.2836,1.2836
Co2PPt,27.7319,20.8017,-6.9302
LiNdGa3,6.0502,9.0844,3.0342
Y11Hg9Pt4,37.3414,28.2944,-9.047
Co2PPt,33.928,20.8017,-13.1263
Rb2InF6,6.5207,7.1562,0.6355
Tm3Ga,24.8889,27.2979,2.4091
Y3GaAg3S8,38.9947,29.1118,-9.883
Tb2ErCu2,14.4779,17.8567,3.3788
YGaPbS2,38.1788,31.4249,-6.7539
KRb2Tl,15.4652,15.5132,0.048
FeNi3Pb,33.8507,28.5518,-5.2989
La2PuN3,28.3528,25.592,-2.7608
Sr4Si2As,28.4831,20.7677,-7.7154
Zn4CuIr,12.8824,12.8842,0.0018
SmPaNi10,12.5144,14.3506,1.8361
CdHgPb3,28.0796,30.5426,2.463
Tb13Ho3,26.9282,28.1899,1.2618
KNi2Pd,7.4038,9.4352,2.0314
MnCd2Te,41.8994,37.8988,-4.0005
Y2ErZr3N6,46.3514,39.704,-6.6473
Sm2ThNi9,7.7933,11.1748,3.3815
Pr6Pd5Rh,8.4546,8.8353,0.3807
Sm(Ni2Ge)2,8.5705,8.3043,-0.2662
SnAuSe3,38.7035,34.01,-4.6935
NaPPdCl2,12.4891,11.0504,-1.4387
TbY(ErAs2)2,15.8908,18.4943,2.6035
Zr4CuIr,73.5175,64.5864,-8.931
LaCrI,23.3011,21.9448,-1.3563
Zr4CuRu,69.4881,60.6121,-8.876
CuAgAu4,37.9015,38.1826,0.2812
Ce2Cu3NiGe4,13.0346,12.861,-0.1736
HfZrCu4,45.0571,36.5713,-8.4858
Zr4CuRe,73.2036,64.8661,-8.3375
KCdSn4,18.9447,19.8258,0.8811
SrHf2Pt,97.7908,70.6226,-27.1682
Rb4YEr3Te8,26.5335,25.6757,-0.8578
PaSN,30.7483,35.341,4.5927
Tb2Ni2Ge5Pd,10.2694,10.711,0.4416
TbYZrSc,36.1464,34.7103,-1.4361
Tl2CoPt,49.9323,44.1154,-5.8169
Pr12Er5Tl2,10.0652,11.0147,0.9495
RbZnPt,32.8536,24.533,-8.3206
PmYAlSn,30.3099,27.4867,-2.8232
PrTm5Tl4,34.9848,37.1889,2.2041
NaLaBe3,16.8777,13.3671,-3.5106
Tm3In3Ni2Rh,23.9102,23.2069,-0.7033
Sr2ZrRu,36.0589,33.5042,-2.5547
CeSc(GeO4)2,24.2885,22.578,-1.7105
ReSn3C,42.3693,37.9086,-4.4608
ReSnO2,63.1756,53.2315,-9.9441
SrZrRu2,36.2379,35.0515,-1.1864
LaCuSb,28.4696,24.8932,-3.5764
CeYZnIn,18.3802,18.7117,0.3315
NaTeW2S,42.0216,37.763,-4.2587
RbLa2PbO5,22.8501,21.9381,-0.912
V6PbO15,36.8511,29.8019,-7.0492
La2CuSb,38.1739,31.063,-7.1108
Pm2Pr4Sm,7.9284,10.9464,3.018
LaCu2Sb,27.3083,23.2377,-4.0706
Hf3CdSn,87.6208,63.926,-23.6947
NaBeInAu3,27.7857,28.7935,1.0078
Ce3Pr3YSe8,29.4067,24.7683,-4.6384
YCoN2F,72.292,61.9436,-10.3484
Pm(Pr2Ir)2,12.9308,16.0721,3.1414
Ti2RuAu,24.1583,21.8471,-2.3112
Ce5CoPb3,26.9724,28.3242,1.3518
Pu3Co3As4,23.2544,23.1612,-0.0932
Tm2Zr2Bi2H,51.9142,49.4703,-2.4439
Sc(CoTc)2,70.6577,59.8419,-10.8158
TmB2Mo,11.6511,15.8187,4.1677
Na2PrMnSe4,41.6018,34.4744,-7.1274
AcSc(IO4)2,41.5457,37.0462,-4.4995
LiInCo3,9.4834,10.1447,0.6612
PrY3(ErSe3)2,30.5667,26.4756,-4.0911
HoSc2US4,49.6398,43.3822,-6.2576
K(SbPd)3,24.8253,21.6846,-3.1408
Nb2AsP,73.9964,61.0316,-12.9647
PrFe2P,26.1817,23.231,-2.9507
La2Ga4CoGe2,17.4043,15.3092,-2.095
ZnCo2Ir,22.8017,20.767,-2.0347
CoNi5Pt2,30.1572,24.0788,-6.0783
Sm7Co2Ge5,0.0,3.3011,3.3011
LuNbSb,52.2706,46.672,-5.5987
LaTb(ScS2)2,47.105,39.0642,-8.0408
CaOs,24.1202,27.269,3.1488
GaCoH5,0.0,1.1508,1.1508
ScTi3Cd,9.3533,10.7818,1.4285
Ta2SiP,26.7328,28.8844,2.1516
NaHfSe2,64.9464,49.0019,-15.9445
K2CrSe,20.3858,15.8565,-4.5293
CeHo5Zn4,19.4418,21.6128,2.171
ZrTlH,44.6358,42.7381,-1.8977
NpCuSb,33.4113,33.51,0.0988
Na2SrI4,17.7255,18.5208,0.7953
YMnIn,46.0663,39.8235,-6.2428
Fe2CoRu,33.6192,24.1995,-9.4197
LiZrHgBr6,21.7097,19.2578,-2.4519
Zr4CuIr,74.3692,64.5864,-9.7828
Sc2Fe2Hg,29.3873,26.5067,-2.8806
CrPb5,45.7707,45.8757,0.105
Ba4Co(ReO6)2,11.2611,10.8317,-0.4294
Ba2La(IrO4)3,12.7448,14.4404,1.6956
ErPuTh4,61.0006,64.473,3.4724
Ac8Co3OsBr4,42.606,41.933,-0.673
SrMnI3,35.9365,31.977,-3.9594
YZnS2N,49.4501,39.1348,-10.3153
La6Sn3H,31.5128,23.9372,-7.5756
TaCo2Ni,45.0401,35.8955,-9.1445
Ti6FeSn2H,14.8803,10.8173,-4.063
SrRe2Cl,33.2208,34.1034,0.8825
SrReCl3,19.7232,19.0924,-0.6308
SrReCl2,24.0143,22.9308,-1.0834
Sc2FeHg,23.6643,22.7212,-0.9431
Rb2YAsF6,15.7618,14.7269,-1.0348
AlBMo3,24.1069,17.7924,-6.3145
Na2MnO3,37.183,36.0598,-1.1232
Na2GdMnAs2O9,2.7687,3.4735,0.7048
ZrScReRh,69.4971,55.8493,-13.6478
HfZrSeI2,68.2378,53.6665,-14.5713
HfPbSeN2,49.201,39.1631,-10.0379
BaHf3(AuO3)4,29.9846,24.6839,-5.3007
In2Bi,31.5019,32.865,1.3631
Sm2SiSb,26.6375,25.7822,-0.8553
AlCd2FeHg,13.8184,12.629,-1.1894
Ac4Sb2As,50.419,49.5289,-0.8901
AcSb4As,42.2518,37.8767,-4.3751
Gd4(CoB2)3,16.378,16.0623,-0.3157
FeReAu,44.3974,39.273,-5.1243
PrHo2Zr,37.8571,36.5249,-1.3322
PdRhI2N,30.8221,26.0748,-4.7473
In6Bi2Pb,31.2405,32.2978,1.0572
AcSb2As,40.6979,38.2581,-2.4397
Nd(ZnH4)2,3.7296,5.1872,1.4576
Zr(CoGe)6,7.9229,9.8059,1.8831
Hf2Co3Cu4,57.6731,42.3439,-15.3292
YbZn4Cd,13.94,14.9217,0.9817
In4BiPb2,34.5107,35.1748,0.6641
Ce3CdIn,18.1092,22.3759,4.2667
FeCoRu4,24.2804,21.4187,-2.8617
K2TaCr,44.24,31.8298,-12.4102
Li2Y(ErPb)2,25.2236,27.5594,2.3358
CeTlAu3,39.0628,41.7499,2.6871
Co2CuRe2,24.3926,26.3023,1.9096
CeHfSe2N,44.2071,34.3801,-9.827
LiYErPb,23.7974,26.2146,2.4172
SiPbAu2,40.894,40.5055,-0.3885
CsNi2C,19.954,17.5261,-2.4279
Sr4H3N,12.5071,13.4682,0.9611
SiPb2Au,42.1952,41.9363,-0.2589
K2TaCr,44.1612,31.8298,-12.3314
ZrSc2Ge,41.5587,34.2814,-7.2773
K2TaCr,44.2446,31.8298,-12.4148
PuThSb,60.5184,60.1798,-0.3386
AlBMo3,21.9269,17.7924,-4.1345
SmAgF4,6.9697,8.0246,1.0549
TlAsPtBr2,36.8845,30.9868,-5.8976
LaBeCd4,22.1921,20.244,-1.9481
InAs2Br,12.6527,15.2323,2.5795
SmEr2(PaP2)3,24.1684,25.9149,1.7465
CeNdTh3,43.0357,50.07,7.0343
Tb5Co8Sn15,17.253,18.5809,1.3279
YCoAsC2,48.087,35.419,-12.668
Pr3NdSmEr,6.0776,8.5034,2.4259
CePmHg3,6.7156,9.4634,2.7478
NiAsPd2,22.3427,19.8834,-2.4593
Y2CoAs,29.7059,27.0723,-2.6336
Y3Er(ScBi3)2,33.2667,35.0782,1.8115
SrH6Pt,12.5692,9.5127,-3.0564
KCo2Se3,23.1024,18.7753,-4.3271
CeSmAu3,32.8226,36.1075,3.285
La2Pt2Br,58.3333,42.7876,-15.5456
PaTiN3,4.2395,6.1376,1.8981
MgCuAs4,11.8619,10.3982,-1.4637
CaTlPb4,44.2593,45.1517,0.8924
Pu4Hg2N,41.5684,42.1612,0.5928
LiSnHg4,4.9078,5.1239,0.2161
Ce3DyPu,12.8802,18.428,5.5479
CeEr3Tm,15.0262,20.885,5.8588
NaLiBe2,6.707,5.4189,-1.2881
Tl(CoTe2)4,31.6802,30.7359,-0.9443
BaCaSb4,31.3388,26.1998,-5.1391
Ca(CoH2)6,4.4384,3.831,-0.6074
CePm3Dy,10.7714,15.4507,4.6793
Ta2CrCu,40.4951,34.6081,-5.8871
MgCuAs,9.0775,7.3249,-1.7526
Ca(CoH2)6,4.4563,3.831,-0.6253
Ac2ScNbO8,42.1777,38.5438,-3.6339
Cs4La6CoBr14,17.9934,14.3655,-3.6279
MgCu2As,11.369,9.854,-1.515
CeY2ErSe6,35.3017,30.9551,-4.3466
SiH7(IrOs)2,15.7668,17.1469,1.38
GaSbO2,37.5052,34.0484,-3.4568
VH5Os,19.3734,18.4246,-0.9488
TmAgF4,13.4864,14.8827,1.3963
CeNd3Sm,10.4543,15.1602,4.7059
CaLaSb4,40.0119,32.4927,-7.5192
K3SbBr6,13.7814,13.0434,-0.738
Pr2Dy4Sn3O2,30.5769,27.6318,-2.945
CePrEr3,16.9124,19.0159,2.1035
RbAsF4,19.3208,18.2153,-1.1055
Nd3VO6,9.8644,10.2343,0.3699
PrInBi2,26.3645,29.0526,2.6881
ZnSbW,30.6801,30.6002,-0.0799
Rb2V2Si8O21,2.0872,0.3754,-1.7118
Co2ReTc,36.3377,35.58,-0.7578
ErH5Ru,6.4247,7.6162,1.1915
Rb2V(MoO4)3,20.2422,18.2726,-1.9696
RbV(IO4)2,20.8785,15.5116,-5.3668
Tm3MgAl3Ge2,21.9472,20.4516,-1.4956
HfVClO4,30.0389,22.4111,-7.6277
NaSrTa2,31.5903,28.4463,-3.144
Na3Pr(TeSe3)2,36.1017,29.6816,-6.4201
SnBiF2,25.1718,25.8132,0.6414
Sn(SbTe)2,35.4219,31.8284,-3.5934
AcPrCo2,17.9312,22.3854,4.4543
LaPtBr3,36.3923,27.6789,-8.7135
KWCl2,14.7192,14.8804,0.1612
Na(LiOs)2,17.2357,20.8807,3.645
In(IrPt)2,50.9726,44.3401,-6.6325
YSiBr,33.2673,28.665,-4.6024
TaCr2Ag,40.3273,30.0389,-10.2883
Dy3VO6,10.4668,11.5828,1.116
Hf2GaCo4Sn,42.2144,34.0966,-8.1178
SiNiP2,15.1369,13.5971,-1.5398
TlRe2Sn,32.9732,37.7047,4.7315
PmScAgRh,28.5821,23.9896,-4.5925
Na4ReN3,43.2465,39.7255,-3.521
CaCdF4,7.1591,8.3611,1.202
RbSrNb,43.0104,36.8751,-6.1353
ZrReOs2,55.6153,56.3538,0.7385
Tm6Co20As13,19.6556,15.9351,-3.7205
Fe(HRu)3,10.7307,9.3672,-1.3634
YEr2Ag,11.6341,14.0998,2.4657
Cd2Ag8Sn3,27.1187,23.3275,-3.7912
Nd2NiPt,35.625,31.4167,-4.2084
LiLaTl4,42.5289,41.0591,-1.4699
CoNi5Pt12,65.7888,47.8377,-17.9511
Ba2Li(H3Rh)2,9.7965,7.8949,-1.9017
DyTh2ScS4,51.9171,45.5387,-6.3784
CaAc2ThSb4,47.1198,44.5799,-2.5399
Y2ErIr,25.202,28.1805,2.9785
ScRe4Hg,42.2307,39.0388,-3.1919
InPbSe,40.1937,38.2431,-1.9506
Np(VH3)2,36.3102,29.9199,-6.3903
Li(CoIr)2,13.8627,18.7868,4.9241
Nd2H6Ir2Pd,13.6592,15.0446,1.3854
Ta2Ga2Sb,53.4555,43.6626,-9.7929
BeCoPt4,65.532,46.4299,-19.1021
RhI3,26.9972,24.2992,-2.6979
Co2Sn4Ir,19.7004,22.1874,2.487
NaCoHg2Se,16.0845,13.1616,-2.9229
InNi3O,15.6285,14.4269,-1.2016
ScCuBr2,24.0928,20.1188,-3.974
HfCo3I,38.4323,30.1247,-8.3076
ScSi3Br,26.7891,20.9237,-5.8654
CaFe2Os,37.1364,29.4543,-7.6821
Ca2ScV4,78.9924,59.8313,-19.1611
LaDyMgTc,43.6629,37.7959,-5.8671
CeScAgRh,27.1916,24.3648,-2.8269
La4Sc2Sb,38.6641,29.3804,-9.2837
CuSi2Br,15.4999,11.4282,-4.0717
Rb2CrCuSe,15.438,13.1669,-2.2711
CuSi2Br,15.5524,11.4282,-4.1241
NiB2PO6,3.3054,2.8819,-0.4235
TlAgSn,34.485,33.1773,-1.3077
ScCu2Br,26.1328,20.9056,-5.2272
HfNi2B,23.6209,19.7933,-3.8276
Rb2SnRhBr6,13.342,11.9804,-1.3616
CaGdSb,19.9319,18.9586,-0.9733
PmSc(SbO4)2,40.2848,36.2942,-3.9906
Tl5H3F2,26.822,28.1971,1.3751
InNi2Br,7.646,9.8084,2.1623
Cs5HAu2F,21.7783,22.7225,0.9442
InAu,33.6255,36.0657,2.4401
La2PrTm,32.4125,27.3211,-5.0914
PrLuCd4,17.3467,18.8472,1.5004
BC,53.4394,43.6636,-9.7759
Na3MnIn,40.3571,36.0595,-4.2976
SnOsW2,90.2099,78.7372,-11.4727
Zr2Ti2Bi2H,47.1697,42.3959,-4.7737
Sr2Hf2Ge2H,47.3671,36.5326,-10.8345
YHgOs2,27.3707,30.609,3.2383
LiPrNdO2,19.4556,19.9878,0.5322
Ta2SbPt,51.8562,46.3783,-5.4779
VCuI2,45.939,38.6442,-7.2948
Cs2NiTeBr6,15.7657,16.0891,0.3234
Cs2Te2I,27.5826,27.7012,0.1185
TaRhSe4,45.8618,37.0947,-8.7671
SrSc2Bi,15.329,18.4934,3.1644
Sm(YHg4)3,10.532,9.2037,-1.3284
Sm2Tm2Ru3,22.5531,25.2778,2.7247
URhSe4,44.7093,37.4698,-7.2395
NaNdGdIn,24.4472,25.403,0.9559
Rb2NaSn2,11.7705,12.1761,0.4056
Sr2NbAg,47.5116,40.0579,-7.4537
NaPmEr,26.4085,27.0252,0.6167
Cr6Ru2Rh,19.9654,17.5492,-2.4162
IrI3Cl,24.9043,25.0769,0.1725
LiFePbO3,23.9948,22.119,-1.8759
TlOsSeN2,45.7875,39.293,-6.4946
Pr12Y3Hg,5.1038,3.7945,-1.3094
Cs2TeI,24.9961,25.5963,0.6002
Mn3CrW2,53.7081,49.0352,-4.6729
RbNpSe4,37.7507,32.486,-5.2647
K3Hg5Au2,11.3591,11.4901,0.131
RbGaSe2N,29.1958,22.7785,-6.4173
Al2TlV,42.8338,37.9524,-4.8814
HfSbSe4,57.4278,45.0114,-12.4164
Al2HgPb,12.3587,15.116,2.7572
Pr3YHg12,1.7054,1.748,0.0426
Ni2AgPb,24.5357,25.8081,1.2724
TbCe3Th2N6,18.2974,20.3495,2.0521
KZr2Ni,54.6551,47.1623,-7.4928
CeErBi,36.0643,38.7019,2.6376
SbMoSe2,39.5239,33.4119,-6.1121
Sb2MoSe,38.5799,33.3152,-5.2647
Np(CoB3)2,9.1667,12.15,2.9833
LiNdPN3,8.0765,8.6047,0.5282
SrReAs,33.0098,27.0077,-6.0022
Y3NiHg,64.3383,54.6212,-9.7171
Dy2OsPb,36.8966,40.7177,3.8211
Tb11Sm4Sc9,18.3362,19.8279,1.4918
K2AgBi2,29.8925,28.715,-1.1775
La2TcSb,59.9857,48.1983,-11.7874
Tb11Er4Sc9,19.0782,20.5345,1.4563
Tb11Dy4Sc9,18.7292,20.2364,1.5072
Li12YHg6,5.3048,4.3516,-0.9531
Y(HgI3)2,17.7772,18.2227,0.4455
NdYHg2,18.2331,17.4554,-0.7777
Ge2SbSe2,28.0543,23.4723,-4.582
CaErAg,21.9462,21.2394,-0.7068
Sc2BeAg,13.5882,12.4954,-1.0928
SrZnB2,12.0676,10.1593,-1.9083
SrRe2As,34.3428,31.3581,-2.9847
BaGeSe2,25.7619,22.6231,-3.1387
Cr2AsBr,24.7872,21.5135,-3.2737
BaLaSb2,34.4934,29.3899,-5.1035
YTaHg2B,48.0354,41.6898,-6.3455
BaLaSb,31.6034,25.6748,-5.9287
LiTlNi,19.2903,21.2539,1.9636
Na2Cd2Pb,27.9069,26.8128,-1.0941
NaMnAs2Br,33.0485,29.4569,-3.5916
NbCr3Os4,42.0183,40.4372,-1.581
Sr(ReAs)2,29.2121,26.7939,-2.4182
Cs2WNCl6,15.2418,15.9274,0.6856
Nd2ErAu2,34.0417,36.516,2.4743
SrRe2As,34.78,31.3581,-3.4219
Th3(CoP)4,31.3157,27.507,-3.8086
Os2RhI,34.2638,34.1491,-0.1147
Ba2Sb2Se,22.5783,19.4027,-3.1756
Sr2ReAs,32.6304,25.3068,-7.3236
Ni3IBr,11.4721,12.2336,0.7615
Sr2ReAs,28.0317,25.3068,-2.7249
ScMnAu3,49.5804,46.4375,-3.1429
Nd6Tl2NF,24.9509,26.3012,1.3503
ScMnAu2,44.3206,42.006,-2.3146
Ac2DyLu,47.5876,50.2391,2.6515
LaZn2Sb,24.4639,21.2811,-3.1827
AcTb(SiPt)2,48.863,39.6766,-9.1864
FeRePb,46.2476,40.6951,-5.5525
YAg2Hg,25.2281,21.2659,-3.9622
AcThPt2,76.1985,65.8179,-10.3806
Nb2MoBr,78.2148,64.8258,-13.3891
TlPSe2N,43.4241,35.3143,-8.1098
YAgHg,26.9408,22.7097,-4.2311
LiEu(WO4)2,16.0922,16.7346,0.6424
Pr2Y(AgHg)2,14.507,12.6459,-1.8611
NaV2ZnFe,66.6262,51.4822,-15.1439
MoOsW3,87.883,75.8886,-11.9944
CsPm2IrO8,8.6776,10.4321,1.7545
YHfAgHg2,45.5889,33.657,-11.9319
Sc2CuReMo,47.5236,36.1906,-11.3329
CrSb2I,26.5463,23.4784,-3.0679
PrLu2In,20.2976,22.508,2.2104
CsBi3W,45.7652,46.7856,1.0204
BaYAgHg,35.6954,30.3707,-5.3248
Cs2BiW,36.8913,37.555,0.6637
TcAuBr,51.8756,46.8067,-5.0689
NaTc2Au,60.2843,53.5775,-6.7068
CsZr(TlI4)2,33.2008,32.7785,-0.4224
Y3Hg4,21.2593,17.8999,-3.3594
CuOsRh2,36.8522,31.8551,-4.9971
Cs2NaTl4Au3,41.7022,41.6919,-0.0103
Y(Ag2Hg)2,24.9965,20.0666,-4.9299
Be2V2Sb,54.5906,43.7947,-10.7959
Sc2InTc,69.2053,58.3007,-10.9046
Li3Sc3SbS8,40.6424,32.2122,-8.4302
KRb3Cd,4.3987,4.1361,-0.2626
PrTm3Ir,25.7859,27.8357,2.0499
Y3(Ag2Hg)2,30.4908,24.3446,-6.1462
Pu(CoSi)2,22.1595,21.5322,-0.6273
SrGdTh2,44.0283,47.1715,3.1432
BaNa3Zr,35.7762,29.321,-6.4552
Tb3DySc7,13.2647,15.0519,1.7871
NaBi2Se,45.5906,42.9807,-2.6099
Bi2Sb2Au3,48.6707,47.5459,-1.1249
NaTeAs2F,29.96,25.2053,-4.7547
Re2MoCl,30.7346,29.1226,-1.612
Co3SbTe,22.9714,20.9789,-1.9925
BaZr2,60.1073,52.3247,-7.7826
Ac(SiPt)2,47.3174,36.9233,-10.3941
GaAsBr2,7.8735,8.9768,1.1034
TbYBeHg,19.1531,18.7347,-0.4184
Co2SiRu,6.9221,7.55,0.6278
Y2HgCl,51.8313,47.637,-4.1943
AcSmPt3,64.017,51.7346,-12.2824
Ga2Pb2Br,29.4853,29.1878,-0.2976
YHgCl,52.3945,50.1627,-2.2318
InP2WS,71.2509,62.0669,-9.184
P2WS2,79.6718,66.8996,-12.7722
Tl2IN2,26.3881,25.8608,-0.5273
ZnTcPt,63.3058,50.5256,-12.7802
GaCuBr3,12.5452,11.9052,-0.64
WSeN2,23.4523,23.3856,-0.0667
CeDy2Pa,37.0432,40.7183,3.6751
NaFe3Tc,31.1854,26.1233,-5.062
TlSi2Ir,31.5452,29.3904,-2.1548
KCoCuGe2,21.8534,17.7495,-4.104
Ba2Te,13.048,13.2095,0.1615
BaAlRh2,29.135,20.6904,-8.4446
AlAgPt4,65.3466,47.9682,-17.3784
Y6HgPd12,26.2136,22.8226,-3.3911
Y2Tm(InHg2)3,15.7777,14.839,-0.9386
Hf2MoBr,72.3041,53.3807,-18.9234
Li2CaYHg,12.3841,10.6806,-1.7035
CaHg3Se,27.496,21.5397,-5.9563
Ac3Si2TePt9,70.6791,54.0572,-16.6219
YTlSnHg,31.8573,29.2072,-2.6501
Pa2ZnSn,40.677,43.1782,2.5012
Li2ScV,30.7829,25.424,-5.3589
AlAg2Pt,38.7196,29.7984,-8.9211
Ac(SiPt4)2,73.223,53.61,-19.613
RbY2TlHg,32.0814,27.4469,-4.6346
PaZnFe,30.2258,29.5304,-0.6954
Ti2MoBr,3.7891,7.5851,3.796
YBe2TlHg,20.769,19.7747,-0.9943
Hf4GaCo,98.2121,70.18,-28.0321
NiHgPd2,10.4314,12.376,1.9446
MnHgPd6,25.5469,24.4282,-1.1187
KRh3Se2,42.4193,31.6993,-10.72
TiNbCl2,38.4739,32.9821,-5.4918
YSi2HgF,28.8041,24.2087,-4.5955
Ac2Si4IrPt3,49.0321,39.6054,-9.4266
GdMnPd4,32.8487,31.4025,-1.4462
NdYHgOs,29.0542,29.3892,0.335
NbMoBr3,39.1794,33.1778,-6.0016
MoOsBr2,24.7356,23.323,-1.4126
CuMoCBr2,31.9348,22.0423,-9.8925
AlHg2N,0.5711,1.2188,0.6476
AcLaSiPt,54.4213,44.7794,-9.6419
Pm4Nd3ScS8,39.9592,33.2853,-6.6739
BaCo2Si,7.2941,6.3771,-0.917
SnBiPb2,41.7312,44.2739,2.5426
LaHfTi3,43.2513,32.8197,-10.4315
BaTeC2,37.0912,27.949,-9.1422
ZnMo2Br,7.8962,11.1369,3.2406
TaS2Br,40.7626,33.989,-6.7736
Na(PS)2,26.2413,25.8038,-0.4375
BaTeC2,42.6826,27.949,-14.7335
SrGd2Cu,19.7174,22.0482,2.3308
Y2TaSnHg,40.6411,32.8614,-7.7797
U2NO,33.7509,36.3796,2.6287
La3PbO,47.1694,40.5762,-6.5932
Y2CuHgGe,26.2798,21.1324,-5.1474
GdYHgPt,41.5393,34.2624,-7.277
YPaSnHg,35.997,34.3934,-1.6036
SiHg2Pt,25.9326,18.4402,-7.4924
FeIBr2,12.2527,12.9657,0.713
CrTeAu2,36.6413,36.2344,-0.4069
Pm3Nd4ScS8,39.948,33.0137,-6.9343
CrTeAu2,36.5448,36.2344,-0.3104
CuAgAsS4,39.3016,29.7428,-9.5588
La2Sc2Tc,65.0137,51.0016,-14.0122
Cu(SbAu)2,34.7309,33.3037,-1.4272
CrTeAu2,36.5694,36.2344,-0.335
Nd4Th3ScS8,47.7602,40.848,-6.9122
Be2FeBr,15.7737,11.2686,-4.5051
BeFeBr2,16.0118,12.2898,-3.722
Ba2SrSe,12.2061,11.5354,-0.6707
Ba2NbSn4,31.7992,28.9158,-2.8834
YScHgPb,26.63,26.1137,-0.5162
Sc2TiAu2,20.5817,19.0403,-1.5414
MgZn4Mo,8.6366,9.864,1.2274
CrTe2Au,35.2025,33.7361,-1.4664
Ca12P6N,20.9067,17.3697,-3.537
AcSi2Ni5Pt,23.6824,20.7555,-2.9269
NdTh2ScS4,51.5905,45.2153,-6.3752
Ge3AsP,16.1833,14.8075,-1.3758
AcNd(SiPt)2,48.5593,39.3684,-9.1908
Rb3TiBi,14.4024,13.8741,-0.5283
GeAsP,14.5139,12.6798,-1.8341
Tc2IrSe,69.4919,60.3256,-9.1664
Tc3MoBr,62.9503,52.5258,-10.4246
ScCoSCl2,28.3741,23.9132,-4.461
CsLi(SO4)2,16.9572,14.6007,-2.3566
Tb4Pm9Y11,20.1236,21.4735,1.3499
ScPdRhPb,34.6828,30.9807,-3.7022
LiMoBr2,14.9671,15.4051,0.438
TcIrSe,62.0282,56.3343,-5.6939
YHgSb2Te,36.618,31.0148,-5.6032
BeMo2Rh,24.9075,19.7234,-5.184
Tm2Zr2Sc3,39.0691,37.1835,-1.8856
La3(PmSc)2,32.6235,26.791,-5.8325
LiLaYHg,26.6045,21.4263,-5.1782
CoSb2TeRu,32.5672,28.8201,-3.7471
AsRuN2,25.1859,24.3642,-0.8216
LiYHgPb,26.5985,25.0759,-1.5226
CsSc3Sb,18.6751,16.7463,-1.9288
ZnSe2BrN,31.937,26.2266,-5.7104
Pr2Sm7Ho3,20.9381,22.6531,1.715
CsScSb2,31.537,27.5627,-3.9743
CoSbTe2As,33.7309,29.1112,-4.6197
TiRu3I,21.7844,20.8577,-0.9267
GdPb6,49.8104,50.5257,0.7152
Na2Sr2Tl,25.2132,24.3919,-0.8213
YAgHg2B,46.7876,38.6243,-8.1633
CaCe2Tm,21.6191,24.2965,2.6774
CaTbSc2,17.4673,14.1793,-3.2881
MnSbIr2,57.8835,53.3237,-4.5598
La4Ag(SbN)2,35.9534,27.5195,-8.4339
Ni3AgSe,19.9849,17.7655,-2.2194
InPtN2,28.4738,26.4282,-2.0456
Y2CoHgAu,38.7598,33.527,-5.2329
Sr3NpO8,7.6358,9.9317,2.2959
Ac2Np(Pd4Pt)3,37.4877,34.3146,-3.1731
Ac4Cd(PbN)2,41.9646,43.4123,1.4477
Er4TcSe,24.5592,25.5439,0.9847
Ca2LuOsO6,24.3915,24.3041,-0.0874
Ge3MoRu,14.0581,14.6638,0.6057
SnGePb2,33.9466,34.9981,1.0516
Sn2AsPd3,15.7677,14.5586,-1.2091
CoCuTeI2,33.3905,28.3667,-5.0238
La2YHgOs,38.9863,31.905,-7.0814
LaAlMo2,31.4663,24.1514,-7.315
LaAl2Mo,23.2476,18.7075,-4.5401
CoGeSbTe2,30.6854,27.4564,-3.229
NaAl2Pd,11.7884,12.7219,0.9334
Si2GeTe,20.8749,17.7486,-3.1263
Ba4ZrAl,23.8975,19.3132,-4.5842
Pd2PbBr,28.4729,29.0427,0.5698
Ac8OsPt3Cl4,51.4232,47.4648,-3.9583
Tb2Pr3Nd7,17.6876,19.3246,1.637
Be2NiF,5.0389,5.7529,0.714
CeZnInPd3,12.5653,15.5747,3.0094