Formula,E_hull_DFT (eV/atom),E_hull_ML (eV/atom),Delta (ML - DFT)
Be2TcHg,24.6786,20.6939,-3.9847
Sr3(Zn2Pb)2,19.2227,20.1825,0.9598
Sr3(Zn2Cd)2,14.1375,12.7688,-1.3687
Sr6H2Ir,15.6049,15.2063,-0.3986
NdEr2ScAu4,33.8932,35.951,2.0578
LiHfHgRh,50.2407,36.1582,-14.0826
ZrPt4Se,83.757,61.8002,-21.9568
Na4Hf3ZnSe8,56.528,42.3053,-14.2227
LiWCl4,13.067,12.5529,-0.5141
ZrFeOs2,54.8789,50.1352,-4.7437
YTlZn2,21.88,21.4144,-0.4656
NdH5Pt,16.2579,13.4444,-2.8134
ScTi5Sn3,14.9804,11.0351,-3.9453
CePuTh4,60.5085,63.6512,3.1426
SrBeSn,17.3468,13.4372,-3.9095
Sr2NbSe2,53.2937,44.1617,-9.1319
Zr2FeOs,60.2926,52.7469,-7.5457
Hf2HgRh,77.0823,54.9673,-22.115
ZrOs,0.0,10.8503,10.8503
ScMoIr4,39.7567,40.591,0.8343
La(H2Pt)4,31.5835,22.3894,-9.194
FeCo2Os,28.4769,25.2555,-3.2214
BaNaMg2Sc,8.9591,7.2747,-1.6843
ZnIr2W,37.343,37.7746,0.4316
Zn4Cd3Au2,20.2358,21.0884,0.8525
ZrPb4Se,59.8148,55.848,-3.9668
PSe2Cl,24.0792,19.9159,-4.1632
ScRe2,46.9118,44.7977,-2.114
TcPPb4,52.2056,49.6516,-2.554
RbNbAg2,49.4974,39.8218,-9.6756
CeHfAu4,59.0674,53.927,-5.1404
Cs3(ZnAg2)2,23.7444,20.5316,-3.2128
Ca2ScRe,36.1775,28.7088,-7.4687
Li2AlIr,14.5874,14.9587,0.3713
K2AsRu,15.3491,14.0186,-1.3305
CeNdTm4,28.7445,31.3484,2.6039
HoSc5Ga3,2.8084,5.6113,2.8029
Hf4Zr2In3,92.2521,70.1205,-22.1316
Y2ZnCrTe,35.3621,28.6354,-6.7267
NiBPt,25.5418,21.0651,-4.4767
Sc5PaIn3,12.4693,13.7853,1.3161
CsMnPPt2,62.6364,46.1801,-16.4563
TaPt,63.6184,52.6459,-10.9724
Sr(HgSb)3,18.9157,15.4517,-3.464
Mn2AgC,66.0784,49.0748,-17.0037
B2MoIr2,14.6292,18.3517,3.7225
ZnB3Mo,10.6549,9.7948,-0.8601
Nd2Br3,11.2659,14.5809,3.315
U2Co2H6Ir,17.5365,19.5298,1.9933
K2YRu,18.8649,14.6918,-4.1731
Sr3IrOs,29.6915,27.2864,-2.4051
ZnCo3N,49.3655,40.3528,-9.0128
Rb3HfSc3Se8,35.1197,27.9045,-7.2152
BaSi2Te,17.8902,14.576,-3.3143
CdInAg3,24.1129,20.6852,-3.4277
Y2ZrZn,35.4174,31.7951,-3.6223
CdTe4P,32.6129,31.0089,-1.604
Y2ThZn,27.1836,28.1713,0.9877
MnTlCo,53.7414,46.3794,-7.362
Tl5Re,49.6124,51.4694,1.857
Ca4MgNi,7.5796,6.7708,-0.8088
Mg3SnW,14.7538,15.6638,0.91
Hf2ReCl,75.528,57.4947,-18.0333
Pm3HfAg3Se8,45.3437,36.6476,-8.6961
Rb2PmPr,6.8088,7.4003,0.5915
CrCd2Ge,11.0742,12.9743,1.9001
YAsAu4,35.1578,37.1547,1.9969
Ru5W,39.9097,32.0325,-7.8772
TaPPt,45.3895,36.9359,-8.4535
Pm3CoSn3Hg2,15.4325,17.1197,1.6872
Rb3NbAg,36.9081,29.1785,-7.7296
LaTmAg3,31.1155,25.2925,-5.8229
Ce6HOs5,29.7021,31.8665,2.1643
YZnRe2,36.9376,32.618,-4.3196
PmSmAg3,24.6609,22.687,-1.9739
NdTmAg3,25.7754,23.7908,-1.9846
CrTeMo4,20.7668,20.81,0.0433
Ta2MnTl,56.6885,53.3859,-3.3027
PmTmAg3,25.8058,23.8061,-1.9997
Ta2TcI,48.1343,46.7202,-1.4141
Nd2InNi2,10.6787,14.4359,3.7572
Ta2MnTl,56.6642,53.3859,-3.2784
SbAuSe3,43.6928,37.3598,-6.333
CaLa2SmSe4,49.3087,38.5646,-10.7441
ThCd3Ag,28.2145,28.8393,0.6247
Cd3AgPb,26.4927,26.4329,-0.0598
TbGa2BO6,8.9821,9.3756,0.3935
CrIrOs4,38.1014,40.6935,2.5921
U4Ga16Pd3,25.2303,23.619,-1.6113
YZnCuRu,23.9555,21.4419,-2.5136
LaPm(PuTe2)2,47.3315,45.106,-2.2255
CdAgPt3,59.8532,43.3696,-16.4836
Pr(HRh)3,14.3523,9.6528,-4.6995
Ce3(PrTe2)4,24.7346,25.0308,0.2962
SmYZnPt,35.2667,29.1968,-6.0699
LaCo5Si3,6.685,5.9051,-0.7799
CaAlMo4,21.8066,18.1097,-3.6969
Ho3AgAu,27.807,29.2412,1.4342
AgAuI3,27.2775,26.8783,-0.3992
AlSb2,27.325,22.1704,-5.1546
Li2LaY,13.5382,12.3894,-1.1488
CrPRh2,51.061,39.2119,-11.8491
PRu4Au,20.0801,22.5457,2.4657
Ca4YSi,18.7229,16.5891,-2.1338
Sm7(TeS)4,30.7305,27.9759,-2.7546
La4P3H,25.9379,19.0199,-6.918
CsSr3C,27.3236,23.1754,-4.1482
Mn2H3Pt,42.2139,31.7079,-10.506
CsSrC3,47.0507,34.6083,-12.4424
Er4Co3Ru,18.7497,21.2059,2.4562
In3AgSn,19.4406,19.0682,-0.3725
NaBeH,5.6448,5.5041,-0.1407
Tm3HfAg3Se8,46.5144,37.6055,-8.909
AlSb4Pt,45.9958,34.4084,-11.5875
PmDyCoHg,14.3162,17.08,2.7638
LiW3I,30.4319,32.6738,2.242
Zr2CdI,59.8471,51.8761,-7.971
Sc2InFe,24.0995,23.8264,-0.2731
TlSiRh4,44.0035,33.2294,-10.7741
RhI2BrN,24.0868,20.1627,-3.9241
NaMnCr,40.394,37.9111,-2.4828
Ba6InH2,3.1277,3.8175,0.6898
BaCa2Sc,7.4885,5.9337,-1.5548
La2Sm3PuTe6,40.5186,37.4516,-3.067
BeRhC2,43.9354,32.0724,-11.863
Be2RhC,28.2286,22.1487,-6.0799
YMn2Br,56.3868,44.7606,-11.6262
Li2Co3H8,1.9982,2.4795,0.4813
Fe2BMo,14.1491,11.8034,-2.3456
SrLaBe3,18.1802,12.0364,-6.1438
ErH6Pt,14.6489,12.7031,-1.9457
MnZnTe,50.1393,41.5948,-8.5445
LiCaScI6,13.2859,13.37,0.0841
Y2MnBr,34.667,30.0331,-4.634
Pr2H12Ru3Pb,11.2042,11.2623,0.0581
CsLa(PPt2)2,54.4221,39.2906,-15.1315
In3Ge2,12.4461,14.2012,1.755
SrSe3Br,35.7418,28.7609,-6.9809
Cd3RhI,27.2745,23.9242,-3.3503
YbZn2,11.3536,15.3511,3.9975
NaBPCl2,10.0602,8.6131,-1.4471
TbNd4Tm2Mg,23.6808,25.6992,2.0185
PrThCu10,10.7822,12.0203,1.2381
NiOsRu,0.0,6.7929,6.7929
Sm2Zr5Bi3H2,58.2794,52.4979,-5.7815
BeSbW2,33.821,33.447,-0.374
BeSbW2,33.9074,33.447,-0.4604
La4CoTc,52.0537,38.0003,-14.0535
Y(GaS2)3,22.6849,15.097,-7.5879
BeSbW2,34.0293,33.447,-0.5823
Co2SiRh,18.8627,15.5057,-3.357
NiPI2O,31.1126,25.5685,-5.5441
TaNiOs,18.564,26.9088,8.3447
CeDyTlRh,37.672,36.3294,-1.3426
NaTlInPb,36.8822,36.3915,-0.4907
InBrCl4,4.6901,5.7048,1.0147
Ti2Ni5Rh,14.9368,12.9736,-1.9632
PrHo2Ni,21.8334,21.5744,-0.259
Mo2WCSe,38.8532,33.8378,-5.0154
Mn(H2Pd)3,10.893,9.7014,-1.1916
BeBiSb2Te,38.6632,33.703,-4.9601
P2Pt2Pb,41.7736,33.3905,-8.3831
Pr2Ho2Rh15,40.8606,29.1699,-11.6907
YMnSe2Br,43.8291,35.4321,-8.397
BaMgCr,12.0576,9.3918,-2.6658
PRuPb2,31.8398,33.4278,1.588
B12W,3.7829,5.5275,1.7447
ThSi3Ir5,27.4849,29.8805,2.3956
SmPaCu10,13.2431,14.6685,1.4254
CuRuW2,26.6031,29.2114,2.6082
PaMn5Si3,59.0172,45.7845,-13.2327
V2GaP,68.8503,55.0738,-13.7765
YMnIr2Br,43.4908,39.9543,-3.5366
KLaV3,91.8814,69.4954,-22.386
PW2Cl,79.1623,67.8816,-11.2807
Nb2CdRu,72.87,64.4874,-8.3826
AlTlCl4,11.8847,12.7541,0.8695
Cs2Na2IrO4,10.0533,11.3597,1.3064
PtPb2,60.0551,55.3586,-4.6966
Ti(TcH4)2,17.4583,14.8783,-2.58
Na6V2P(CO4)4,20.3894,17.7104,-2.679
CaTc4Sb,71.4481,58.4545,-12.9936
CrPtAu,48.6667,40.1163,-8.5504
Ta(MoPt)2,40.0706,34.886,-5.1846
CrPtAu2,48.2968,42.9056,-5.3912
ErAsBrO4,0.2362,2.164,1.9278
NaBOF2,0.0,0.0,0.0
TmHgPdPb,24.7542,27.1787,2.4245
Li2La2YSi2,32.3814,25.245,-7.1364
Rb3(FeH3)2,0.6663,1.0148,0.3485
RePtAu2,51.5558,48.9905,-2.5652
In4OsCl,21.6774,22.9212,1.2438
TeBrO2,2.1899,3.4552,1.2653
K(Be2C)2,20.9919,16.6529,-4.3391
Cu3SnGe3,19.3049,17.5635,-1.7414
RbFe2Cu,17.5479,13.8977,-3.6503
SbBrO2,23.3476,22.239,-1.1086
LiTbYIn,16.3661,17.4269,1.0609
Y2BeSi4Ni3,43.4201,35.4937,-7.9264
CsSbPHPt,29.5045,22.1925,-7.3121
Co2Br,11.1352,11.2986,0.1635
Ga3PbI,20.4818,21.1739,0.692
Bi2As2Br,24.5018,26.0763,1.5746
BaZr4Ni,69.4665,56.3631,-13.1034
SrCaNb3,92.0642,74.9182,-17.146
TaZn2I,19.8395,20.9141,1.0745
Bi3AsBr,37.5395,37.9363,0.3968
TlRe3,43.2582,48.8019,5.5437
CaYCuNi,47.0447,39.8389,-7.2058
BaNaNb2Ge,65.2823,53.7998,-11.4825
ZrCu3,24.4982,22.6648,-1.8334
TlFeOs2,43.691,41.9031,-1.7879
Dy2RhPb,38.5353,37.4423,-1.093
Tl4CoRe,43.3353,44.0911,0.7558
AlReCl4,11.2766,12.152,0.8754
H8Ir5Pt,22.2525,21.7844,-0.4681
SiRhCl4,14.6581,11.2416,-3.4165
TbPrPd2,13.6381,16.5422,2.9041
UH11Pd5,9.31,10.3184,1.0084
UH11Pd5,9.3163,10.3184,1.0021
UH11Pd5,9.2864,10.3184,1.032
YTiBr2,22.5355,17.7984,-4.7371
CrNiTe2,36.1212,33.1518,-2.9693
Fe2CoCu,26.7808,21.474,-5.3068
Sb3OsC,48.7656,38.5735,-10.1921
TlFe4Os,22.0374,21.3578,-0.6797
CaTe4Ru,32.2014,31.1585,-1.0429
NiOsRu2,24.0512,25.858,1.8069
MnTeIr4,53.0373,50.8091,-2.2283
V3FeNi2(PO4)6,25.727,21.0014,-4.7256
Ta3NiAs,33.7455,33.0349,-0.7107
Sr4CaMg,11.6819,11.3125,-0.3694
RbP,5.8295,1.0149,-4.8146
Na3Sc2(PO4)3,26.0805,21.5655,-4.515
Ce2Np(TlTe2)3,42.9027,43.1369,0.2342
SrRu3Au,24.4024,25.5101,1.1076
Tc3AsRu,64.6436,52.6834,-11.9602
SbPt2Pb,69.0316,53.5899,-15.4417
Rb(CuP)2,13.5257,9.8704,-3.6552
NaSmGeO4,0.0,0.0,0.0
NaSbPb3,45.8179,42.8857,-2.9323
Ca2Ti2As2H,13.1156,11.3803,-1.7353
PuNiP2,16.5607,18.7441,2.1835
RbCuC2,32.7043,22.5688,-10.1355
NaSbPb2,43.7767,40.7724,-3.0043
CaAl3Ir,2.3274,2.1287,-0.1987
Sb2Pt2Pb,59.1913,45.8178,-13.3735
Sb(TeP)2,23.935,21.7599,-2.1751
HfPI3,45.6622,35.2333,-10.4289
CaCoRh2,30.7345,22.6684,-8.0661
ZrCrH6,13.414,11.783,-1.631
V2ZnGa,68.2673,54.9976,-13.2696
BaCdCl4,4.3177,5.8027,1.485
CrNiTe2,35.7221,33.1518,-2.5702
BaSn4Pb,22.3379,23.3884,1.0505
Pm3H2Br3,8.4767,11.4574,2.9807
IrSeBr,29.2585,28.023,-1.2356
Ca3IrW,26.988,22.6868,-4.3012
BeFeSbC2,44.7504,32.1799,-12.5705
Na2V16Mo2O45,34.3171,27.0842,-7.2329
Zn2FeOs,23.6991,21.4577,-2.2414
Te2Pt,58.4636,47.9705,-10.493
TePt3,72.4033,53.3366,-19.0668
Ba4SrSc,3.5247,4.4271,0.9024
Na5B(SO4)4,0.0,0.0,0.0
CsSbPHPt,33.7971,22.1925,-11.6046
SbTeP2,24.1234,21.4497,-2.6738
Y2IrI,17.1755,21.5161,4.3406
RbPt2N,48.1501,34.9109,-13.2392
CoTcSb4,48.4505,37.8747,-10.5758
Rb2CuC,19.2141,13.9771,-5.237
Rb3CuC,15.9695,11.3002,-4.6692
NaLaSc,23.3372,17.4745,-5.8627
NaSc3Nb,37.6004,32.1797,-5.4207
Er4Co3Ni,26.761,25.3537,-1.4073
Al3FeCo,0.0,0.0,0.0
Na2LaSc2,22.6412,18.2477,-4.3935
KRb2Ge,2.1006,1.6275,-0.4731
DyMg(ZnH4)2,4.8308,5.4647,0.6339
CeNiN2,15.8486,15.6812,-0.1673
Mg4ZrSi,21.2345,18.4802,-2.7544
YTiNiRh,56.6413,47.6149,-9.0264
PuAl3Ga,17.6356,19.7115,2.0759
Gd2InSb,30.1194,29.8703,-0.2491
LiSc2Tc,63.9684,53.5895,-10.3788
NdScPa,26.0174,31.0153,4.998
Li2ScTc,62.4168,51.2159,-11.2009
Tl2H6Ru2Au,16.6873,18.3373,1.6501
ScWAu2,29.2056,33.1858,3.9802
Pm2NdSmHo5,22.6123,25.4788,2.8664
LiScTc2,85.5635,70.6063,-14.9572
BrCl5,5.5565,5.6202,0.0637
NdAl3Hg,3.4229,6.3365,2.9137
CaY2AgSe4,41.0507,33.2431,-7.8077
SbTe2P,33.4674,30.9978,-2.4696
Pm4HgPd,5.3777,9.8864,4.5087
Li3In2,7.4479,7.2079,-0.2399
SrAl3Ge,14.3049,12.5688,-1.7362
SmY2Er7,26.5402,28.1086,1.5684
NbZnI2,49.3036,42.8772,-6.4264
Sr4CaY3Te8,28.1353,25.8604,-2.2749
EuAlAg,20.6787,19.4202,-1.2586
Tb5HN4,12.2273,16.0303,3.803
Zn2PtPb,39.3765,33.4453,-5.9313
ZnPtPb2,50.4327,44.6302,-5.8025
PrNd2PuTe4,34.2741,34.5265,0.2524
RbLiYS2,21.6531,17.1988,-4.4543
CdCoCl4,6.3004,8.1589,1.8585
K4Ag3Br10,14.2337,12.7142,-1.5195
YAlBr6,16.9953,16.0603,-0.935
MnAl3Fe,6.2348,5.9142,-0.3206
Cs4Tl3I10,27.2763,27.5287,0.2524
SbICl2,19.003,17.1767,-1.8263
Ni2GeSe3,30.4925,24.4704,-6.0221
FeTc3Ni,76.0371,60.4514,-15.5857
Fe2CoCu,32.2685,21.474,-10.7945
PtSe,36.6287,23.9245,-12.7041
CuSiSe4,37.2858,29.9691,-7.3168
Ce2EuBi,32.8332,34.7421,1.9089
CsBa2Si,9.8826,9.5144,-0.3682
LaNdI6,25.3877,24.5682,-0.8195
PPtSe2,47.41,36.6277,-10.7823
CaPrLuSc,14.0811,13.2879,-0.7931
RbPtBr2,29.949,22.8038,-7.1453
La2YSnC,47.8014,34.4096,-13.3917
RbPt2C,55.2417,37.7354,-17.5063
LaSc2As,24.4857,19.0884,-5.3973
YZrTiGe2,42.2264,33.7966,-8.4298
CeEuBi2,40.4497,42.6657,2.2159
Tm2MgBe3Pt4,43.8826,32.4086,-11.474
AlTlSn2,23.9644,25.5359,1.5715
CaNbTe2,57.7743,51.3915,-6.3828
YRuS2Cl,57.4815,49.0092,-8.4723
Ba(AlSn)3,11.7571,11.6835,-0.0736
LiInCuGe,10.2428,10.9268,0.6839
LiInAs3,11.7193,11.4471,-0.2722
IrSeBr,19.5602,28.023,8.4628
SrCo2As,17.7125,14.9456,-2.7669
KNa2Sr,18.7198,16.1164,-2.6034
IrSe2Br,37.6505,35.4461,-2.2043
PuSnPN,30.6205,32.7879,2.1673
Li2In2As,9.0768,8.9694,-0.1074
Mn3Nb2Ru,89.7476,72.6905,-17.0571
YSeI3,26.3675,24.8632,-1.5042
RbLiIn2Ge,13.5484,12.805,-0.7434
Ca4TaCo,25.897,19.9872,-5.9098
NaOsPb2,39.4838,40.3658,0.882
Ru3SeCl,21.4861,20.9364,-0.5498
K2Na2Nd4Nb2O13,10.0596,9.3498,-0.7098
NaPaInO5,9.0279,12.8228,3.7949
Pr3ThPb5,29.587,32.0366,2.4496
Li2InGeB,8.9731,8.2011,-0.772
KNaSr,16.7617,15.1097,-1.652
Cs3PAu,24.6872,25.3146,0.6274
Eu2GaSi2,13.1965,12.8308,-0.3657
Hf5Ga6,69.4669,50.8966,-18.5703
Pr3SmPb5,25.2485,27.9786,2.7301
YSe3I,36.0614,30.6167,-5.4447
Na5WNO4,10.2354,9.3169,-0.9184
Y4RuW,30.4554,24.6608,-5.7946
LaY3(MnSi)4,60.4073,46.3017,-14.1056
Li2InAs,8.565,8.8219,0.2569
RePPb2,57.3598,51.8245,-5.5353
BaMg2CoSn,10.9487,8.2189,-2.7298
NaSb2Pt,50.6635,38.2098,-12.4537
NaP3Br,10.9696,10.1315,-0.8381
ScAsRhSe2,44.2904,37.1386,-7.1518
AgRhI2,28.637,24.1294,-4.5076
CsDyP2Pt5,55.4288,40.6006,-14.8282
TbPr3Pb5,25.4267,28.1782,2.7515
BaMgCl4,3.8349,4.2944,0.4595
Na3Zn5O12,7.8367,3.5812,-4.2555
Pm4CdHg,19.422,21.8466,2.4246
HfAl3Ru,19.9962,17.3633,-2.6329
SrThRu4,24.0288,27.6172,3.5884
Na3ErU2N6,19.3649,20.64,1.2752
ScRe2,47.9034,44.7977,-3.1057
CaPrSb2,23.3711,18.2213,-5.1498
RbLi2InNi,9.7721,8.5774,-1.1947
ScCo4H7,2.668,3.9509,1.2829
PrZrCu10,13.5172,13.105,-0.4121
PuZrCu10,19.7861,19.4697,-0.3165
OsSe,45.8557,43.8476,-2.0081
TbZrCu10,15.9182,15.6654,-0.2528
NaMoRh2,28.9073,24.2045,-4.7028
Co2TcRh2,33.2143,27.7677,-5.4466
CePm4Sm3N8,11.368,14.363,2.9949
NaVPO5,1.5937,1.1509,-0.4428
Y3Tl3GeO8,28.8826,27.2463,-1.6363
LiSiSn,15.2779,15.0381,-0.2398
Ca(H3Pd)2,8.4008,7.0619,-1.3388
RbLi2InPb,17.9353,16.8886,-1.0467
PaAl3Si,20.7075,21.2378,0.5303
Pb3W,49.7944,51.9428,2.1485
Rb2AcTbO4,9.7969,12.1998,2.4029
ZrNbCr,73.8272,61.9951,-11.8322
NaTiCCl2,24.9829,18.166,-6.8169
PmPrNdTh2,30.2549,34.6669,4.412
Al3SiTc,27.5592,22.1602,-5.399
Na3MoI,23.1073,19.939,-3.1682
Ca(H3Pd)2,8.3949,7.0619,-1.333
NaMoRh3,39.1808,29.5104,-9.6704
NaNi3Te,18.3697,17.5032,-0.8665
V(PPb)2,42.8361,38.8662,-3.9699
ReOs,17.781,33.0198,15.2388
CsTl2Te,38.9938,39.9482,0.9544
CaMn2Ir,69.6636,51.949,-17.7145
K2ZrAs,33.4808,29.0251,-4.4557
CaMn2Ir,69.2834,51.949,-17.3344
ZnCrAg,17.8127,13.8429,-3.9698
SrAl3Ir,1.725,3.3037,1.5787
Li2In2As,8.8308,8.9694,0.1386
Pr4CoPd,-0.0,-0.0,0.0
Pr5NdTm3,6.1762,8.8859,2.7097
Pm3Pr5Sm,4.1258,6.9511,2.8253
PrTmCu10,7.8012,9.0166,1.2153
ScTi2N3,-0.0,-0.0,0.0
NaB5PbO9,0.0,0.0,0.0
Ta5Hg3,23.1892,26.2864,3.0972
Ir3SeBr,40.091,39.6156,-0.4755
NdReBrO4,12.2451,12.3972,0.152
CePrGa,12.0609,12.8363,0.7754
Ba2SrTa2,20.0382,18.7532,-1.285
NaCd2(GeO3)3,0.0,1.0685,1.0685
Tb3Pr5Dy,5.0646,7.9673,2.9027
Pr5SmTm3,6.2179,9.1073,2.8894
NaGe3(BO3)4,1.8925,2.4649,0.5724
Pr4CdOs,-0.0,-0.0,0.0
TbEr3N4,12.9868,16.0956,3.1088
Na2Sn(CO2)4,30.1549,23.3284,-6.8265
Na3Pm(SeO3)4,14.1382,13.0058,-1.1325
Ac4TbY3Se8,42.6909,39.0758,-3.6151
Co(ReIr)2,25.241,32.5623,7.3213
CaCeSmN3,0.5747,5.518,4.9433
SrInCu10,8.3872,9.574,1.1867
SrYCo2Rh,33.5454,26.8116,-6.7338
CsTl(PPt2)2,54.5984,41.4482,-13.1502
CeCdNi,20.2451,20.4441,0.199
CeYCu10,13.0123,12.5967,-0.4155
CaTaOs2,31.4962,36.0192,4.5231
Rb2TaOsI6,21.8601,22.1263,0.2662
HoTmFe10,4.855,6.777,1.9221
TaTl3Os,48.1157,49.0866,0.9708
Th4CdRe,66.018,61.5636,-4.4544
Cu2BMo,30.1216,20.6311,-9.4905
BaInAu10,40.8432,41.9349,1.0917
CsP2Pt4Pb,54.7959,41.7381,-13.0577
PrThFe10,8.7171,9.5337,0.8167
Y4TlGeTe2,25.1332,25.2971,0.164
TbSmFe10,4.2901,6.2063,1.9162
Cs2NaTeCl6,12.7975,12.749,-0.0485
Ge3BMo,17.1061,13.3729,-3.7332
K(H4Pt3)2,36.692,25.9097,-10.7823
La(NiH3)4,4.5296,4.3999,-0.1297
Pr2NdN3,8.8625,8.404,-0.4585
Pm5PrIr3,20.5961,25.7523,5.1562
ZrTaFe10,11.2588,11.7181,0.4594
PrSm3Er5,20.1331,22.9308,2.7978
Pm5PrHo3,18.6312,21.3967,2.7655
PrSm3Dy5,18.6829,21.6879,3.005
NdFeCo10,13.1655,12.6653,-0.5001
PmFeCo10,13.1679,12.6689,-0.499
SmTcBrO4,10.3293,9.7862,-0.5431
AlIrPb4,43.7019,44.604,0.9021
Si4PPt,28.5107,19.3713,-9.1394
PmSm3N4,11.4098,14.4391,3.0293
NaIn2I,21.8289,21.0451,-0.7838
Ac4Ge3Au,40.9362,42.6465,1.7104
CdSnPb4,41.7764,42.4955,0.7191
CoBMo2,1.6886,7.0081,5.3195
UInPd,28.7533,33.9575,5.2042
KLaCd10,21.159,20.3088,-0.8503
KBaPd10,15.6741,17.0601,1.386
ZrAsRuSe2,56.2507,48.5788,-7.6719
BaSr2Ta,24.7269,19.8067,-4.9202
K2ScCdRh,19.7662,16.4141,-3.3521
LaW2Se,44.6245,40.6356,-3.9889
MgMnMoH,26.1881,22.5418,-3.6462
Ba2SrTa,21.4102,16.8664,-4.5438
PrHo2Ge,14.9455,18.0472,3.1017
GaRe3Pd,33.8925,34.4417,0.5492
Rh7Pb,49.5625,36.6023,-12.9601
BaB2Mo,0.1267,4.0483,3.9216
Tb5S4NO2,20.4718,21.8243,1.3525
BaNaLi10,3.8022,3.2583,-0.544
LaThPt10,83.6203,59.3943,-24.226
BaLi10Ac,7.1296,7.1443,0.0147
K2NdAgI6,20.6784,20.1065,-0.5718
YCo2Pb,41.4258,35.6135,-5.8123
AlZn4Cu,7.5541,8.276,0.7219
LiPuCu10,11.6672,12.9344,1.2672
BaCd4Ir,20.1147,21.4018,1.2871
LuTaOsRh,39.7994,40.4687,0.6692
LiNdNi10,7.1884,9.0904,1.902
LiHoNi10,11.8483,10.7675,-1.0808
TiCoRe2,30.5016,34.1117,3.6101
RbNa10Ca,21.1553,16.6051,-4.5502
ZrAl3Ru,11.3063,13.9104,2.6041
Na3SrNp2N6,18.6244,19.5505,0.9261
Cs2Mg(HI)2,14.7754,14.7577,-0.0178
Pm3AlAg,17.1335,18.5109,1.3773
AcFeH6,7.933,9.6686,1.7356
Ba2MgSnSe,15.702,13.1074,-2.5946
Be2HgTe,10.8437,11.524,0.6802
Ta3S4,47.2781,39.9377,-7.3404
Na3HfTl,54.7084,42.6061,-12.1023
Ta4FeOs,38.2138,38.4565,0.2427
LiUNi10,10.8629,12.9211,2.0582
TaS,37.712,35.2494,-2.4626
Y(CoSb)2,33.3728,26.4504,-6.9224
NiAsBr2,19.8385,16.7225,-3.116
Y2CoPbN,60.1404,55.007,-5.1334
SO,4.7406,0.0,-4.7406
YCoSb2,46.6057,37.2457,-9.36
Y2CoNiSb,69.1354,57.1011,-12.0343
KNa3(SeO3)4,13.7602,11.4605,-2.2997
PuAlAu3,25.0123,29.9451,4.9327
CaCuPN,15.4329,11.6941,-3.7388
Ca3AlHg,1.0716,3.0637,1.992
SiSO2,16.8742,16.261,-0.6132
Ca3AlTl,10.9212,13.0512,2.1299
YU3Tl4O12,23.0545,24.194,1.1395
CaAlGa3,9.6806,7.7899,-1.8907
LaH2ClO2,12.0378,11.1798,-0.858
Y2AsAu2,20.0511,23.5866,3.5356
Ac3AlCd,39.3765,42.0637,2.6872
Be2HgW,16.3143,15.2632,-1.0512
Be2Pt2Pb,41.2352,33.1942,-8.041
LiScNi10,5.7622,7.4598,1.6976
SrTe2W,42.8753,36.1182,-6.7571
Cs9Rb6Ag,16.3304,15.6333,-0.6971
YCoSb2,46.7155,37.2457,-9.4699
Nb(CuSb2)2,48.2264,39.1293,-9.097
TaOsPt2,63.8907,53.2489,-10.6418
LiAcZn10,11.6231,12.4551,0.832
RbNa10Tl,24.9668,20.4181,-4.5487
ScGaC2,27.9021,21.7548,-6.1472
K2NaSr,14.5817,13.5205,-1.0612
Cd4InBi,25.2478,26.0564,0.8086
AgH6Ir5,21.1753,21.5089,0.3336
Nd2Sm2H,19.714,21.4435,1.7294
SrCa2SmHg4,6.2527,6.6927,0.44
Nb2CuSb2,69.4783,57.3932,-12.0851
TlTeP2,25.1952,25.4399,0.2447
YTlCo4,27.9264,26.1457,-1.7807
Sr3NbCl,44.0401,37.765,-6.2751
Zn4IrW2,24.9161,24.6745,-0.2416
MnAlCr3,17.937,15.6536,-2.2835
GePIrN,29.9991,28.7468,-1.2523
TlTe,46.3074,46.8788,0.5714
Sc(FeW)2,26.6436,28.9093,2.2656
TbPrNi2,15.7187,14.7778,-0.9408
Sm(H3Rh)2,13.4515,10.8012,-2.6503
AlCuB2Mo,18.7085,13.64,-5.0685
Nb3CuSb,97.0099,79.3393,-17.6706
GePIrN,30.1345,28.7468,-1.3877
Cd4BiPb,30.7438,31.6361,0.8922
Nd2ErAu4,37.9396,39.3383,1.3987
KFe2Ru,20.9407,15.684,-5.2567
VAsRu,30.8305,27.2067,-3.6238
SrSc2W,25.1342,19.8979,-5.2363
CaZnTc4,65.3041,53.9383,-11.3658
BiBMo2,15.3154,20.1335,4.8181
TlCr4Fe,22.3482,19.2875,-3.0607
NaCoRu,10.7642,12.8533,2.0891
SrV2Cr,72.9529,56.6812,-16.2717
BaBe2HgBr6,3.1241,3.9133,0.7891
MgPaCu10,13.0712,13.256,0.1849
TiH5Os,6.8162,8.9077,2.0915
ZnIr3W,40.1691,39.8936,-0.2755
LaY2TlCo,42.6054,35.4557,-7.1497
LuPuNi2,29.2855,32.3186,3.033
AcAlIn3,25.1513,26.6697,1.5183
CsTiSn3,25.2774,21.8384,-3.439
Y2TlCoPb,42.6418,39.225,-3.4168
Ca4Pu3UN8,18.2061,21.1077,2.9015
Sn2BMo,31.3848,24.8395,-6.5453
BMoAs3,10.21,11.1285,0.9185
LiHfInSi2,43.5373,32.3581,-11.1792
Nd2AlH6,5.7957,6.5502,0.7545
BaLa2YMn,63.2949,46.9827,-16.3122
Nd3AlIn,14.8316,17.8518,3.0202
Tm3AlIn,18.3218,21.847,3.5251
Na2SrAg,23.5804,19.3631,-4.2173
Ba(CuSn)2,43.6283,37.5546,-6.0737
AlInTe3,18.8961,20.6736,1.7775
La3AlTl,37.0607,28.6637,-8.397
ZnIrW2,36.0461,36.6999,0.6539
Be2HgW,15.843,15.2632,-0.5798
NaAcAu10,46.503,47.0254,0.5224
AlCoBr4,18.5193,14.5477,-3.9717
CdSbPb2,42.3693,40.8942,-1.4751
YInW2,38.0854,32.1871,-5.8983
Ce4CdSb,27.0334,27.0885,0.0551
NiAsPb,21.1533,20.5747,-0.5786
Tb2CrH8,5.3514,6.1157,0.7643
Nd2Y(AlZn)2,20.5694,19.5753,-0.9941
Mn(RhN)2,33.8074,24.6958,-9.1116
NaPdPt4,66.6724,47.9134,-18.7591
PaInOs2,42.5602,46.6973,4.1371
BeV2Ni,66.0168,53.6786,-12.3382
NaTaAgC2,45.6136,35.0705,-10.543
Na2NbCdO4,24.9367,21.7115,-3.2252
Ca2Al5Zn2,5.6458,5.7211,0.0753
ZnIr2W,37.3089,37.7746,0.4657
Ce3(Zn2Cd)2,15.7131,16.9861,1.273
RbBaMg2,2.811,2.2287,-0.5823
Ni(SnC)2,35.4785,25.4308,-10.0477
Nb2CdSbPb,81.5083,69.0861,-12.4222
Tc3Rh,81.7651,67.0165,-14.7486
TcRh2,55.0741,46.2912,-8.783
Ni2Cl,2.4906,4.7916,2.301
Pm3Nd3CoHg2,16.8449,19.2632,2.4182
TcRh2,63.5512,46.2912,-17.26
NdH5Pt2,25.2041,19.8952,-5.3089
MnCo4Cl,22.4654,19.5569,-2.9085
SbPbW2C,50.6717,44.9784,-5.6934
PIr2Au,41.1925,39.8596,-1.3329
Ce4TmTh,32.8087,35.3452,2.5365
TaSiNi,0.0,3.5127,3.5127
ScCu2Ni,21.6431,18.4699,-3.1732
Li2BMo,5.0799,7.4089,2.329
Ac4Sb2Ir,55.1967,53.418,-1.7787
RbTiCr2,21.5126,20.0608,-1.4517
PIrAu2,41.9477,40.3547,-1.593
Mn2CdSe,66.7029,52.3378,-14.3651
MnCdSe2,39.2265,31.2297,-7.9968
BMoAu3,32.3304,33.7334,1.403
HfMnCo10,25.6963,21.732,-3.9643
Ac3(Zn2Pb)2,36.2008,37.3845,1.1838
HfSbS2,75.5035,55.0347,-20.4688
YInW,37.6498,28.1762,-9.4736
CsTcP2Pt,44.1114,34.8635,-9.2479
Cs(LiP)2,11.3392,8.5028,-2.8363
LiY(ErIn2)2,20.4499,20.7478,0.2979
B2MoRh,14.231,15.942,1.7111