Formula,E_hull_DFT (eV/atom),E_hull_ML (eV/atom),Delta (ML - DFT)
VSiSe,56.9916,45.0921,-11.8995
LiCeAu,23.8868,25.7614,1.8746
YInHg2Pt,32.2432,23.8234,-8.4198
YHgPt3,64.2713,45.0618,-19.2095
K3AsBr6,7.3272,8.2289,0.9017
La2RePb,49.0984,42.24,-6.8584
LiFeF4,0.0897,1.0667,0.9769
Hf2ZrPa,113.3577,89.8857,-23.472
LiFeF4,0.1726,1.0667,0.8941
CoAsIr2,30.459,31.4003,0.9413
SrGa2AgN,13.2259,11.6588,-1.5671
Rb3HfCr,34.9585,25.231,-9.7275
Ni9Pt11Rh4,51.5342,37.1491,-14.3851
PmBeSb2,28.4767,24.7313,-3.7454
KCoIr2,26.8556,29.6838,2.8281
KCoIr2,26.7905,29.6838,2.8933
LiFeF4,0.1076,1.0667,0.959
TcSeI3,42.647,36.9306,-5.7164
SrIrI,27.364,24.7154,-2.6487
Ag2MoCl,23.9251,18.0799,-5.8452
BaSr2PbO5,7.283,8.6502,1.3672
Rb2MnNb,58.7441,46.6456,-12.0985
OsRh3C,50.5214,38.3979,-12.1235
KLa2Pb,41.9853,34.0347,-7.9506
SrOsBr3,19.3472,18.6664,-0.6808
CaVSeN2,55.1512,42.6024,-12.5488
Y2Hg3Pt,31.1237,22.4173,-8.7064
CaVCuN2,29.9658,23.7559,-6.2099
La3SbPb,50.2118,38.2774,-11.9343
Ba2LiFe,17.4957,14.4641,-3.0316
TiNbS4,61.1837,46.6765,-14.5072
CuNi2I,7.3996,9.95,2.5503
Y2HgAs,27.8135,21.7649,-6.0486
MgCr(H4Os)2,9.0305,9.4794,0.449
TmTl2AgF6,14.4464,16.3883,1.9418
YHg2As,14.822,12.193,-2.629
Al(InP)2,19.1621,16.7096,-2.4525
LaSb2Pb,47.9364,39.7172,-8.2192
Y2HgAs2,23.5545,18.539,-5.0155
LaSbPb2,50.0799,44.8435,-5.2364
Y(HgAs)2,14.0235,12.1968,-1.8267
Sm11Hg9Ir4,26.6118,22.0864,-4.5254
ScSi2Pb,34.06,30.7796,-3.2805
GdHg6,4.2951,4.7163,0.4212
Y2HgSe,31.6411,24.1542,-7.4869
CaCuPb2,27.8868,28.7212,0.8343
La(SbPb)2,44.2152,38.3224,-5.8928
Y3VHg,49.186,37.7406,-11.4454
AcYSiHg,37.9511,35.3859,-2.5651
Pr2Nd2Hg3,5.2294,6.9082,1.6789
BaCuHg,2.664,3.3231,0.6592
Ca3Ni5Te12,18.2337,16.0262,-2.2074
LaSb2Pb,47.9962,39.7172,-8.279
AcEuPt4,74.1295,57.4116,-16.7179
BaGd3Cu,19.5059,20.4588,0.9529
YPuThHg,47.199,45.9509,-1.2481
KSn2,17.6927,18.4421,0.7494
YHg2Ru,16.6173,14.8077,-1.8095
CaY(TmHg2)2,11.1341,11.1213,-0.0128
Er4CoRh2,31.0702,29.5822,-1.4881
K2Ga4SnGe3,10.4892,11.1093,0.6201
LaTiN2,5.1468,5.0882,-0.0586
TlNi2Se,28.1656,27.4817,-0.684
Sr3Li2Nb4O13,31.3407,27.7864,-3.5543
ErScNiRh,22.1858,21.1025,-1.0833
Gd2ErTh,38.6638,41.8782,3.2145
Pr2Nd2Tm3,18.9287,20.7828,1.8541
Si2IrAu,30.2663,28.7117,-1.5546
NaInAs2Br,15.3633,14.864,-0.4993
TbLuScRh,28.344,27.3232,-1.0208
Ba3Gd,7.53,8.63,1.1
GdHg3,6.7739,7.9808,1.2069
GeTePO2,20.6852,17.6625,-3.0226
YTa2Hg,39.9979,35.9592,-4.0387
AcPRhN,36.7728,31.3064,-5.4665
CaSi3,13.4265,6.9762,-6.4502
NaBiTe,30.8695,30.8853,0.0158
YTaHg2,30.5865,25.7155,-4.871
YTc2Hg,84.8168,66.3226,-18.4942
SiOsI2,23.3549,23.4452,0.0903
Ce2YBi,23.1321,27.1826,4.0505
K6Na2O,11.2984,10.3564,-0.9419
Pu3ThS4,61.8785,58.1843,-3.6942
NaCoPS4,41.2045,30.514,-10.6905
Gd2ScPb,29.1364,32.1279,2.9915
ScTlV2Rh,73.1741,58.8478,-14.3263
Y2TcHg,74.2543,60.4641,-13.7902
NaTlPS2,39.6912,35.2721,-4.4192
GdSc2Pb,22.8702,25.7047,2.8345
YTi2Hg,18.3519,15.5369,-2.815
SbPI2,23.7775,20.482,-3.2956
Be2PbC,23.997,23.2547,-0.7423
BeInBr2,10.3487,11.8023,1.4535
YTmInHg,24.7865,23.297,-1.4895
YTm2Hg,27.7948,26.234,-1.5609
Be2InBr,8.6828,9.4913,0.8085
Y2TmHgN,40.2343,33.8897,-6.3446
Pr2Nd3Ho2,17.2979,19.5876,2.2897
Pr2Nd3Hg2,8.9063,11.2363,2.33
InP2PdCl,12.8079,12.6985,-0.1094
BeInBr2,10.4833,11.8023,1.319
BeIn2Br,13.3484,14.5275,1.1791
SrY2BiC,42.6868,35.4925,-7.1943
KSc3Br,8.8282,8.6411,-0.1871
La11Nd4Ho9,38.4764,31.3727,-7.1037
La11Nd4Er9,38.8745,31.7651,-7.1094
Y2Sn2Hg,25.6256,19.8048,-5.8208
BeIn2Br,12.8682,14.5275,1.6593
KLiSnTe2,19.4191,19.7686,0.3495
Na2TePb2,36.3913,34.9651,-1.4262
HfZrS4,69.2817,52.7791,-16.5026
Eu3(AsPd)4,16.8898,18.4866,1.5969
ZrNbS4,76.6459,58.7952,-17.8507
CaYNi2Hg,39.2954,31.7525,-7.5429
BaNaZnIn,12.856,12.7737,-0.0823
BeSeN2,35.7393,30.0147,-5.7246
LaScPdPb,35.3958,31.3116,-4.0842
NaThRh4,47.407,37.5983,-9.8086
ZrUSe3,53.9577,46.7545,-7.2032
YbCuSeO,16.241,17.6336,1.3926
K3ZnI6,14.6996,15.2766,0.5771
Na3MnIn3Br8,21.0054,20.0572,-0.9483
Na2ZrPb2,47.0934,42.9369,-4.1564
ZnTcI2,37.474,32.9468,-4.5272
KVSn2Ge,38.9991,33.4747,-5.5244
Tm6CrSn2,25.7162,27.6997,1.9835
NaPm(YHg2)2,18.3125,15.1632,-3.1493
NaZr3Pb,75.6009,64.106,-11.4949
Ac2OsPt,64.7919,59.9887,-4.8033
YHgTe2,28.7068,28.7489,0.0421
Y2GaMo,20.699,15.5385,-5.1605
Y2HgTe,35.4718,29.3925,-6.0793
In2Pb2Br,34.1281,32.1761,-1.952
Y2HgTe,35.1012,29.3925,-5.7087
Sc2SBr,29.1147,26.742,-2.3727
YHgTe2,32.9267,28.7489,-4.1778
Sr3Cd(CuO3)2,5.9854,6.2753,0.2898
KGaAgSn2,19.0544,17.6652,-1.3892
HfPS2N,65.3988,46.6237,-18.775
LaY2ReHg,39.472,30.9604,-8.5115
Pr2PbC,25.8091,23.1142,-2.6949
CsPa2BeO8,11.9169,13.7265,1.8096
Na2YHgRu,23.8957,19.4761,-4.4196
Y3AgHg2,25.8157,19.0419,-6.7738
Y4Ni2Hg5,48.8437,40.9888,-7.8549
CaY3Hg4,15.6508,11.8033,-3.8475
Sr2Mn3,60.0085,47.0203,-12.9883
TaReN2,82.4666,77.2576,-5.209
MnNiIr2,73.5299,67.9756,-5.5543
Y4SiHgC,36.3726,26.7475,-9.6251
Os2RuN,41.2306,41.6632,0.4326
NiS2,25.0799,17.5022,-7.5777
GaRe2Os,32.6251,37.7737,5.1487
K2HoSnSe4,32.0034,27.8917,-4.1117
Li7Sb2S,4.205,3.2325,-0.9725
YErAlHg,26.2036,22.4155,-3.7882
CsTlF3,6.735,9.3291,2.5941
Ca2SbRh2,26.0944,19.2411,-6.8533
La4Dy11Ho9,31.8235,30.3897,-1.4338
NdYSiHg,27.9046,25.1987,-2.706
Sm2YErHg2,17.3893,17.5626,0.1734
Ac9La4Hg11,32.2837,30.2939,-1.9898
Sc(InGe)2,18.0553,15.3563,-2.699
SrPuTl2,46.622,48.401,1.779
Be2CrRe,12.1781,15.0605,2.8825
CaSbOs2,29.539,30.8472,1.3082
YbHfGe3,35.3136,29.2815,-6.0321
LiAgSe2N,27.2356,21.6917,-5.5439
KBaSn,10.6908,11.6598,0.9691
RbNiI,7.0289,11.4673,4.4384
La2Pr6Y3Ho,13.5757,10.9261,-2.6496
NaSr(YHg2)2,16.9202,13.4964,-3.4238
Y8HgSe6,30.2626,25.2326,-5.03
Rb2Ce2NdS6,36.2763,29.3066,-6.9697
DyScAgRh,27.6502,24.5054,-3.1448
YMgHg,10.9176,9.7991,-1.1185
Cs2NaYHg,25.4154,21.0932,-4.3222
NaYHg2W,24.4412,20.5366,-3.9046
Ge3SbRu,19.4037,17.7773,-1.6264
Ac2La3Sm7,38.3572,35.5439,-2.8133
La3Sm2Tm7,35.064,32.2919,-2.7721
Ca2InNi,8.8826,9.823,0.9404
RbBeN2,32.5048,27.6302,-4.8746
Ac2RuPt,61.9079,53.7814,-8.1264
Hg2PtW,32.5406,27.1927,-5.3479
Ba2YHg,28.0306,23.2139,-4.8168
InWCl2,17.6851,18.2234,0.5383
Ba2YHg,28.0356,23.2139,-4.8217
Pr4TlAg3,15.4588,13.8784,-1.5804
Ba2YHg,28.19,23.2139,-4.9762
ZnNi5P,12.7137,12.2048,-0.509
Li4Er9Hg11,12.1156,12.7902,0.6747
HfP3,31.2529,22.8583,-8.3946
Li4La9Hg11,20.4579,13.9482,-6.5097
Li4Er9In11,20.6232,21.236,0.6128
La2P3Au2,23.2862,21.5724,-1.7138
AcNpS2N,39.9413,37.0364,-2.9049
ZnRe2W,42.891,39.1307,-3.7603
SiTe2Br,28.0958,25.2308,-2.8651
Ta2CuSb,32.3386,32.8405,0.5019
Ba5YHg6,8.7594,7.6867,-1.0727
SiTe3Br,27.2513,24.8816,-2.3696
Ce2Al3CdGa4,10.8092,12.3719,1.5627
Cs2SiBr,18.397,16.8926,-1.5043
RbY2TcHg,59.9408,47.7743,-12.1664
EuYHg4,12.7209,11.2177,-1.5032
ZrRuO2F,29.4566,24.1519,-5.3047
Ce2PrNb,47.1356,43.4342,-3.7014
Ac2La7Ho3,48.0523,38.9496,-9.1027
Li4Sm9Hg11,10.4862,11.1654,0.6792
PrNd3(PuS3)2,44.2216,38.4108,-5.8108
InPb2Br,41.3716,38.0972,-3.2744
Li9Ag4Sn11,14.6946,13.9167,-0.7779
ScBeGe,15.9072,11.9744,-3.9328
PaNbPb,79.6659,76.1911,-3.4748
TbPrLu2,22.2619,24.3692,2.1073
Si2Sn2Sb,22.8933,15.5118,-7.3815
Y3HoN3,47.9037,41.1039,-6.7998
ReHgIr2,32.1048,36.7809,4.6761
NaLiNbPd2,41.16,35.5846,-5.5754
Te2Rh3Pb2,47.8856,41.4237,-6.4619
PuBrN,27.0267,29.1453,2.1186
Y2HgSe,36.5409,24.1542,-12.3868
Hf2ZnTc,89.5944,68.6071,-20.9873
Ca2CePb,21.8993,24.0074,2.1081
Pm2Dy2Th3,43.2921,46.8302,3.5381
PaTlS4,50.9057,43.4324,-7.4733
Mg11Zn9Cu4,9.1073,6.9794,-2.1278
Mg11Ag9Au4,20.5012,18.0428,-2.4584
Li9Zn4Sn11,10.7667,11.5417,0.775
ReHgAs2,15.0252,17.1343,2.1091
TmLuMnAu,52.4354,48.6517,-3.7837
La7Pm3Tm2,41.5204,32.4127,-9.1076
SrSi2Ru,29.5358,20.0236,-9.5122
NaInTcBr2,32.8619,28.0073,-4.8546
SrSi2Cl,22.4542,15.3194,-7.1348
Sc3(MnNi2)2,42.2767,36.7022,-5.5746
CaSiTe3,33.0394,28.4394,-4.6
Y2Mg2Cu,14.8789,13.259,-1.6198
SrSiSe2,41.3608,32.5525,-8.8082
Sr4SiPb,28.0641,24.5311,-3.5329
TcMoBr2,29.0663,26.2418,-2.8245
LaTh2NpS4,50.3977,43.8332,-6.5645
Zn2InOsCl,17.6414,18.1249,0.4835
U2PaS3,61.067,55.4554,-5.6116
La7YEr4,41.1037,31.6019,-9.5018
SrFeCoSi2,26.3875,17.5895,-8.798
Na3TmF6,7.422,8.6575,1.2355
Ac2InSb3Rh4,47.1838,38.9556,-8.2282
NaTlC,41.7515,33.5303,-8.2211
SrSi4Cl,20.1665,12.9668,-7.1997
La4Y4Er3,31.9587,27.0954,-4.8632
Sn(SbN)2,29.6846,23.5798,-6.1048
Re2Ir3Rh2,44.1044,43.1264,-0.9779
Mn3Ga2Co7,30.7111,25.4174,-5.2937
Np2Mn,79.995,74.8056,-5.1893
YPuHg4,20.0113,18.6415,-1.3699
TlRuI6,28.7609,28.0502,-0.7107
Mn7Co2Os3,70.2626,57.2082,-13.0544
Ta2Pd3Rh2,31.9799,30.7978,-1.1821
AcYHgSb,39.3711,34.5915,-4.7796
RbTl3Ru,52.5786,49.54,-3.0386
CaYTa2,41.4118,37.5493,-3.8625
CeEr2P3,14.1625,16.6739,2.5114
Re2Mo7W3,27.5278,29.9182,2.3904
YHg(SO4)2,20.2208,17.5956,-2.6252
LuCu4Sb,17.4012,17.4454,0.0442
Zn2FeBr,11.1797,8.3387,-2.841
Ac(PmNd)6,28.0119,29.2063,1.1943
AsOsPb2,39.954,41.9811,2.0271
Gd2CdCo,27.2647,26.6526,-0.6122
Sb4RuS,37.1118,29.2498,-7.862
MnInIr2,44.9348,44.0998,-0.835
BeCrAs2,12.3588,9.04,-3.3188
Pr6PdPb2,5.1144,7.6576,2.5433
RbSe4S,41.6634,33.0531,-8.6102
Ac3Ga(CN3)2,35.0554,32.2564,-2.799
Be(PRh)2,21.8811,16.1888,-5.6922
Ta3SnPt,45.0838,41.737,-3.3468
Sb2TeAuBr,44.8683,40.1694,-4.6989
YbMnAl4,19.6025,18.7677,-0.8348
HgMoS4,35.1329,28.7072,-6.4257
MgMnCdAg,38.1798,30.8451,-7.3347
Th3Pb,62.5791,65.7143,3.1353
Ir3(RhW)2,43.7256,43.4955,-0.2302
YEr4Te5,32.9625,32.8547,-0.1078
TlTcMo,53.8303,50.5321,-3.2982
ErNpPt4,75.4127,58.8546,-16.5581
Pa2CuTc,58.5375,57.2276,-1.3099
YCu2Rh,26.3467,21.0714,-5.2753
GdRh4Pb,45.9788,37.139,-8.8398
CrInIr2,30.2849,31.8998,1.6148
K2Sb5Au3,35.278,31.1574,-4.1205
MnCoTcGeSe,44.965,35.9298,-9.0352
CoPIr,27.5999,25.3612,-2.2387
PmSm2Si,16.9802,18.7073,1.7271
Zr5Al3C,54.3024,44.7745,-9.5278
SbIrAu,45.4298,44.9163,-0.5135
MnMo2Ru,39.5424,34.4816,-5.0607
NaBr,7.6131,8.8062,1.1931
ThMoOs2,44.7159,46.3145,1.5986
Rb(SrSi)2,29.3266,19.0753,-10.2513
TaCd2Si,22.7367,23.0982,0.3614
Sc2Sn2S,29.0945,25.5472,-3.5473
Ac3EuPt,61.8715,57.3648,-4.5067
AlBiI3,27.2132,25.7644,-1.4488
LaInO4,25.7017,25.0026,-0.6991
SrAc(CdIn)2,27.277,27.0532,-0.2237
GdGa3Tc,29.2254,27.3302,-1.8953
ScCd3Cu8,14.8555,14.3008,-0.5547
ScCdCu,31.083,26.3771,-4.7059
CuSbTe2W,36.1382,33.4797,-2.6585
Sc2SiSn,30.2781,25.3248,-4.9534
LiCaTe2N,18.3162,17.9777,-0.3385
SrReBi2,44.2396,41.3953,-2.8443
K3Si5I12,10.6549,9.5971,-1.0577
TlTcMo2,44.013,43.0411,-0.9719
TmSc2PaSb4,36.8923,32.5885,-4.3038
ScCdCu2,24.9835,21.405,-3.5785
LaPb2W,49.3983,46.9049,-2.4934
LaPr2Eu,17.7238,15.6498,-2.074
UCoP2,30.9039,29.3009,-1.603
LiZr2Be,45.3174,40.2103,-5.1071
Tb11In9Rh4,27.1377,25.7294,-1.4083
Ba2Na3Sr7,14.1159,13.5238,-0.5921
Ni(P2Rh3)2,29.7363,21.8253,-7.911
PWAu,106.545,90.8974,-15.6476
PPt2W,112.8557,87.4744,-25.3813
MoPtW2,45.4279,43.6634,-1.7646
Cs4Rb3LiBr8,12.8894,13.1877,0.2983
Cs2LiTcBr6,20.1425,18.9644,-1.1781
AlAsPb2,42.3822,39.8027,-2.5795
Nb7Re2W3,99.2611,85.6068,-13.6543
La6In,48.152,32.8774,-15.2746
Tl2SbIr,47.6945,46.9505,-0.744
PWAu4,77.6944,70.1056,-7.5888
Sc2Ga5Pd3,13.1546,11.5818,-1.5728
Ag2PW,84.1104,68.4405,-15.6699
P2WSe,81.1165,66.6108,-14.5057
As2PW,73.6088,61.549,-12.0598
P2PtW,91.0943,72.8561,-18.2382
CuPW2,79.4149,69.3597,-10.0552
Hf3PSe,96.607,69.1155,-27.4915
SbP2W,80.1444,66.6414,-13.503
Na3Re5N12,52.5162,44.4654,-8.0509
HfCuReSe2,58.4992,46.0692,-12.43
ZrCu2GeBr,29.6604,25.6035,-4.0569
K3Ca5Br12,0.0,0.0,0.0
PIr2W,89.6152,79.7782,-9.837
Tc2PW,114.5081,94.9974,-19.5107
Re2PW,87.925,79.3652,-8.5598
SbAsW3,36.3122,36.8033,0.491
Ca2ScPb,20.2695,19.1534,-1.1161
ScAsPb2,42.956,40.2057,-2.7502
CaDyBeN2,17.6681,18.7031,1.035
Ca2RuPb,19.7481,22.0651,2.3169
RePd8,20.3572,23.1039,2.7466
ScAsPb2,42.7211,40.2057,-2.5153
Cs3BTe,23.4426,23.4646,0.022
Ce3(ThRu)2,33.8832,37.0177,3.1345
LaIn,8.1804,9.0128,0.8324
Ca4PW,49.7134,41.9732,-7.7402
Ac2Ho3Ru2,39.092,37.429,-1.6631
BaPW2,78.1968,66.8346,-11.3622
PW2Au,82.0814,74.0935,-7.9879
HfP2OsW,98.2795,75.0489,-23.2306
LiCrP2W,80.9898,64.8447,-16.1451
LiTb2Tm,21.1493,23.6107,2.4615
AcPrIrPt,47.4375,43.3765,-4.061
PPt2W,113.0363,87.4744,-25.5619
LaBrCl4,12.6033,10.7676,-1.8357
Ac2As3Pt4Au,55.6284,45.4097,-10.2187
PrSm(NpAs2)2,24.0111,26.4034,2.3923
Cu4IrSe,20.1117,20.4013,0.2896
GdTm3,30.3436,32.417,2.0733
Os3(RuRh)2,49.6012,43.3484,-6.2528
Rb3Tb3Rh2,23.2816,19.7787,-3.5029
PRh2WN,75.6408,59.753,-15.8879
Ru2Pt2Rh3,63.9995,46.3244,-17.6751
HfRu2N,58.9818,50.0726,-8.9092
ZnGa2B,9.0908,8.08,-1.0109
BaLaMn3,71.4205,53.0224,-18.3981
RePWN2,114.2073,96.5575,-17.6498
ScSiBi2Rh,50.0516,43.4034,-6.6482
Ac7Nd3Sm2,48.0727,49.8788,1.8061
SrGe2W,26.733,21.3047,-5.4283
GePW2Cl,66.0667,56.7447,-9.322
K4GeO4,0.0,0.0,0.0
NaCrCuTe2,21.2499,21.2423,-0.0076
BiSbTe3,45.8754,42.0424,-3.8329
SbPW2,89.1607,76.2851,-12.8755
InP2W,74.3158,62.9629,-11.3529
MnTlTe2N,47.1487,41.8107,-5.338
ZnSbP2W,66.9109,54.7872,-12.1238
AsPWSe2,88.206,73.0433,-15.1627
Cd2CuPW,64.5811,54.7858,-9.7953
Pr6PdN3,0.0,0.0,0.0
Co2PIr,22.2144,23.1446,0.9302
PWSe3,83.9749,67.3034,-16.6714
LiReIr2,31.9022,35.5822,3.68
P2WAu,81.1597,70.0254,-11.1343
LaSbPb2,50.3574,44.8435,-5.5139
LiReIr2,31.7216,35.5822,3.8607
BeP2WSe,67.0989,54.206,-12.8929
P3IrW,71.0069,57.7236,-13.2833
LaAlIn3,23.717,20.6261,-3.0909
GeP3W,58.2497,48.6953,-9.5544
RbTa2PW,72.9847,63.443,-9.5418
PaSnS4,51.5647,43.1295,-8.4353
Tb2Pb2N,31.0443,33.7102,2.6659
CrPPdW2,68.1038,59.5962,-8.5076
P2PtW,90.954,72.8561,-18.0979
ScNbBi2Rh,61.5691,53.9211,-7.6479
LiMo2Au,19.7133,22.499,2.7857
NdNbF6,24.4431,22.9063,-1.5368
Tc2RhPb,72.094,61.5116,-10.5824
Ag3SnOs,33.0288,28.5253,-4.5034
Ta2AgPb,39.9427,41.2201,1.2774
Na(SnCl2)2,11.0556,10.6061,-0.4495
Li2MoAu,16.2606,17.7689,1.5083
MoRuF3,13.7187,12.465,-1.2536
In2TcPb,46.8192,43.4592,-3.36
Hf2TlSe,96.4879,73.6935,-22.7944
InTcPb2,55.0948,51.5892,-3.5056
BaLa4Mn,51.5382,35.9652,-15.573
TcRhPb2,62.1769,55.7067,-6.4703
Mn4VMo2,80.5577,63.9905,-16.5672
NbCCl,61.3466,49.6835,-11.6631
Ru2Pt2W3,57.8088,47.1392,-10.6696
BaAsPb2,28.8938,30.0026,1.1088
NaAsRu,14.8766,13.9351,-0.9415
CaTeCN2,34.2957,29.5621,-4.7336
LiMgScRh,14.1571,12.0266,-2.1306
Sc2InS,32.1111,29.4446,-2.6665
PmPr5Sm2Tm,4.902,7.6318,2.7298
LaCeAu6,44.4173,43.7797,-0.6377
Sc3(GeAu)4,34.9009,30.0238,-4.8772
La2FeW,38.0751,31.1267,-6.9484
Sr2ZnI,13.9647,14.8346,0.8699
LiIr2,22.5035,29.0854,6.5819
Y2Er3Ag2,25.3935,24.519,-0.8745
ScCd8Ag5,22.5533,20.1793,-2.3741
HfTlSe2,72.1336,53.6494,-18.4842
YErAgPd,31.1924,27.5499,-3.6425
SrLaTl,35.1631,32.463,-2.7001
AgMoRh2,36.2191,28.5933,-7.6259
HfTlSe2,72.4169,53.6494,-18.7675
BaAs2PbSe8,47.6842,41.0974,-6.5869
GdBe2,11.8373,12.7399,0.9026
InSi2P,17.4729,14.5077,-2.9652
InSiP2,14.429,13.8644,-0.5645
MnCd(CuSe2)2,40.2839,33.1651,-7.1188
CaCo2Pb,24.917,24.0057,-0.9113
NiRu2Pb,17.0437,21.4833,4.4396
Mn2GaWN,49.1407,41.4073,-7.7334
Tl(BrN)2,14.8306,17.3974,2.5668
LaCrRe2,37.2653,36.0351,-1.2303
Cu2AsW,17.2204,18.7368,1.5164
CuAsW,20.2455,22.5337,2.2882
Ac3Tb2NpN6,25.5592,27.991,2.4319
ScCuW2,38.1118,37.0843,-1.0275
Ca2TbPr,8.8712,9.785,0.9138
Na(FeRu)2,33.1594,23.0938,-10.0656
Na(AsRu)2,13.3908,12.33,-1.0608
TiBiSb2,32.7374,30.1828,-2.5546
ZnSbRh2,37.2908,28.7248,-8.5661
NiRu2I,17.0747,16.5102,-0.5646
ScAgW2,61.9636,51.5674,-10.3962
Mg4ZrCu,22.8565,18.9442,-3.9122
Li2Ac3Tl7,45.6287,46.7947,1.166
BaHfSe4,49.4642,39.0914,-10.3728
Li3Zn7Cu2,5.6248,6.4494,0.8246
Zr4CuAs,68.7737,57.3597,-11.414
Ac2Pr2Tm3,30.2579,32.605,2.3471
Y3ErAg,15.1623,16.7245,1.5622
FeCu2GeTe4,33.2432,30.3694,-2.8738
YReNF2,68.6089,59.6432,-8.9657
IrPdW2,25.765,33.9488,8.1838
In2Ag2P,18.4766,16.7148,-1.7618
Mo2AsBr,13.4522,17.1656,3.7133
Ac2Pr3Sm2,23.6665,25.8183,2.1518
Sc2SeS,37.0034,33.429,-3.5745
Pr3(SmPt)2,30.0005,24.1172,-5.8833
Al2PdI8,19.9789,19.6373,-0.3415
Li7Tl3Cd2,16.0469,16.7485,0.7016
Li7Cu2Ag3,9.1933,7.7502,-1.4431
GaNi2Hg,5.0202,7.3127,2.2925
AgAs2Pb,26.2756,26.6421,0.3665
ZrFePb,53.6517,48.2831,-5.3686
InTeAs2,20.6688,21.0829,0.4141
Y2ErTe,24.2488,26.3092,2.0604
Li2Y2ErGa2,11.055,12.7663,1.7113
Ag3PtI,42.4419,31.5533,-10.8886
InBrCl4,8.4372,5.7048,-2.7324
LiLaTeS,31.0834,24.3406,-6.7428
YErNi,65.0819,58.5601,-6.5219
CeTlCdAg,31.3779,30.9096,-0.4683
MoAs2P,12.953,13.406,0.453
Li3Re,7.4669,9.1429,1.676
Li3Te,7.2523,7.5438,0.2916
Li3Nd2Sb3,23.2701,20.3894,-2.8806
Cs2CrCBr6,24.2679,22.2088,-2.059
InTeAs2,20.859,21.0829,0.2239
CuRu3Pt,31.5635,26.728,-4.8355
Hf2TeRu,86.3255,66.1037,-20.2218
Pr2Nd3Tm2,17.9672,20.5858,2.6186
Ni2Ge2W,14.2204,13.3391,-0.8813
Rb3Nb2Cu3S8,41.5078,32.6275,-8.8804
CsGa(AsO4)2,9.5539,9.203,-0.3509
LaSc2Re,41.0478,31.2009,-9.8469
InTe2As,28.781,28.0161,-0.7649
PaCuIr,38.8107,42.8419,4.0312
CaTlAgN,18.5607,18.5152,-0.0456
Pr2Sm3Tm2,18.1975,20.4554,2.2579
Ba2CoCu,19.4135,14.2654,-5.1481
SbIrOs,43.9846,44.6442,0.6595
Ta2Cu,28.0026,28.6743,0.6717
Li7Sn3Hg2,6.7119,6.9785,0.2666
Sc2Be15Ni2,4.2641,3.518,-0.7461
Yb2Al3Pt,23.2273,21.8887,-1.3386
Ac2Tb2Pr3,24.1161,26.53,2.4139
Np2Pb,64.6409,67.3546,2.7138
TaBe2Pb,29.1628,28.1297,-1.0331
Na3InPb,29.4639,26.6132,-2.8507
TaTc3Sb,73.7902,62.4171,-11.3731
CsGa(OsO4)2,14.8712,13.8213,-1.0498
KHg3Pd,0.7904,3.0987,2.3083
Na(InPb)2,31.021,31.6246,0.6036
Zn2GaNi5,6.5802,8.5786,1.9984
Li(TeC)2,38.3343,29.3121,-9.0222
Co(SnB)2,6.1736,9.531,3.3574
LiBe3Ni,3.7053,3.306,-0.3994
Sr2CeCu2S5,33.4398,27.891,-5.5488
UNbSn,69.426,65.2584,-4.1675
CsNdS14,48.1832,34.2562,-13.927
CaTcIr2,46.9218,41.6863,-5.2355
ScAsBr2,21.9345,17.1137,-4.8207
LaCeS2,38.5822,29.3959,-9.1863
Ce3YS4,37.4386,30.4705,-6.9681
RbTlGe,19.9923,20.1848,0.1925
Cs2MnCrS4,41.4561,32.5498,-8.9064
ZnTcN,39.7258,34.27,-5.4558
ZnGaNi2,6.7969,9.2058,2.4089
ZnTc3N,57.3836,49.7274,-7.6562
NaSc3Br,11.9493,11.0354,-0.914
NaScAs3,22.807,18.0758,-4.7311
ScAsBr,19.7798,14.5996,-5.1803
ThMgZnCo,27.4505,24.2542,-3.1963
Na2ZrRhC,53.5529,39.8636,-13.6893
CeOsO3,5.2155,8.8651,3.6496
Ho6ThSc4,23.6266,25.21,1.5834
LiCaCr3,15.9813,11.4714,-4.5099
NaReNi2,34.292,24.9346,-9.3574
Tb2Co4C,20.9689,19.69,-1.2789
NaCaGe2,11.8083,11.842,0.0336
Na3Th(ScS3)2,45.604,37.974,-7.63
LiCaCr2,16.2405,12.7359,-3.5047
YbGaAg,15.6435,16.8975,1.254
LiScCr,15.955,12.9137,-3.0413
TeMoRu3,24.955,24.6306,-0.3244
Ti2Si2Os,7.2467,9.4869,2.2402
CdAs4Ru,16.6003,14.2552,-2.3451
CuWAu3,38.7249,40.0696,1.3447
NaLa(AsPt)2,45.0507,33.4316,-11.6192
AgAs4Ru,18.6717,14.8703,-3.8014
La(TbTl4)3,46.0569,45.9586,-0.0983
Li2CaCr,13.5092,10.2953,-3.2139
La3PrPb12,48.3886,45.9589,-2.4297
Ac2TbCe,45.3574,47.9495,2.5921
Fe4AsPt,30.9142,24.5039,-6.4103
AcTbCe,38.7993,41.4914,2.6921
Y3Er(ScTe3)2,27.9021,26.6877,-1.2144
CuW2Au,33.0935,36.8364,3.7429
ScAgW,69.6049,53.5954,-16.0095
Sr3AcSb2P,27.3298,25.6038,-1.726
YbMgN2,21.1789,20.8259,-0.3531
Ta2BePb,34.8811,36.9911,2.1101
TaBe2Pb,28.7315,28.1297,-0.6018
SrLaSn2,26.0589,23.7032,-2.3556
Ac2ZnSn3Pd4,29.7534,27.8961,-1.8573
TiAlP,18.9563,16.2265,-2.7298
In2AgSb,26.0647,23.5881,-2.4766
Ac2Zn3Sn4Pd,25.9351,25.9746,0.0396
InSn2Cl,12.9043,14.7034,1.7991
In(AgSb)3,32.8177,25.3997,-7.418
CuTc2Te,52.6538,45.9416,-6.7121
NaNiBr,10.793,10.2108,-0.5822
TaBePb2,39.1356,39.5489,0.4133
NaNiI,14.6071,15.7223,1.1152
YErSb2,32.2199,29.8552,-2.3647
TaBePb2,38.8331,39.5489,0.7158
V5Ga5Cu,63.6238,50.4507,-13.173
Tb9Pm11Th4,32.4557,34.0879,1.6322
Pm11Sm4Er9,26.6014,28.1927,1.5913
Be2Ni2Se,7.6267,9.2843,1.6576
Al4SiSe3,26.172,20.9931,-5.1789
VGa3Cu,34.0106,27.5155,-6.4952
Ac3SbAs2Pt9,70.3007,52.9156,-17.3851
CuTe,0.0809,4.8127,4.7318
TcAs2Pb,41.501,39.1867,-2.3143
InAgSb2,35.3609,29.1434,-6.2174
Sc3AuC,3.7857,8.278,4.4924
BaPrCu2,3.7596,3.7798,0.0202
Ca2TiIr2,25.6497,18.8959,-6.7539
NaReNi,43.8635,30.2661,-13.5974
ReSiCl2,16.657,15.7287,-0.9283
Rb2In3Ag2,17.9093,16.109,-1.8003
TaNi2Hg,12.4848,15.8915,3.4067
Rb2Bi2Au3,36.2045,37.0165,0.812
Li3Ga7,2.9113,4.192,1.2807
NaSr3Pd,8.8599,11.0278,2.1679
LaAlPb,35.5731,32.2518,-3.3213
Ga2FeTe,17.8063,16.1606,-1.6457
Cs2Rb2Tl3,29.1938,29.5101,0.3162
Ac3ZnP2Pt9,66.8257,50.5107,-16.315
Eu2(Zn2Ge)3,12.9956,12.5964,-0.3992
Lu2PBr,19.2872,21.5519,2.2646
LiPmS2,33.1491,26.7987,-6.3505
BaAlCo,20.8763,13.1758,-7.7004
Mn(Nb3Bi)2,117.7208,98.5111,-19.2097
NaScIrS2,46.0797,39.7532,-6.3265
Tb4Pm9Hg11,13.2078,14.4999,1.2921
NaOs2Pb,36.207,39.7124,3.5054
Pm9Er11Tm4,27.9114,29.5,1.5886
Pm9Ho4Hg11,13.4931,14.7871,1.2939
Pm6Ho2Tm,21.7104,24.2824,2.572
Ac4Pr11Ho9,19.2487,20.8843,1.6356
TbGd2I,26.7319,28.9463,2.2144
Ac2ZnSn3Pt4,54.8252,44.7425,-10.0827
BaAl5,5.1587,5.2533,0.0946
Th2PBr,35.641,38.3429,2.7019