Formula,E_hull_DFT (eV/atom),E_hull_ML (eV/atom),Delta (ML - DFT)
SmErTh,34.8591,42.2378,7.3787
Ta4GaP,45.0787,38.6209,-6.4578
Li(HPd2)4,11.0961,12.0394,0.9434
Y5HoEr2,14.0953,17.0916,2.9963
GaAuC,34.6459,33.0675,-1.5784
La4DyHo4,38.6193,32.3016,-6.3177
KLiIr2Os,31.3916,31.7586,0.3671
ScBeW2,26.9697,26.5482,-0.4215
Rb2Y(Cl2O)2,18.3438,19.2782,0.9344
KZrGa2,28.8286,24.54,-4.2887
CdSbRu5,21.2416,22.2529,1.0113
YI2ClO,55.4655,50.5214,-4.944
YClO2,39.3115,40.2447,0.9332
Na2LiTe2,23.1526,20.8588,-2.2938
Fe3(PdRh)2,19.1887,16.8468,-2.3419
ZrSc2AlS,42.3803,35.8452,-6.5351
Y2Cl2O,57.6849,56.906,-0.779
CsCaTa2,23.1245,26.9099,3.7854
Pa2Zn2Fe3,36.8792,31.9517,-4.9274
Tc2MoPb,63.8996,58.7846,-5.115
YBrCl2O,35.1204,34.6107,-0.5096
NbSbAu2,70.7223,63.4002,-7.3221
Eu2GdGa,23.5122,25.4841,1.9719
EuGdGa2,18.1026,19.9823,1.8797
Rb2Na4Te,20.3858,17.0049,-3.3808
PmHoPd4,19.9577,22.6969,2.7392
Ga2Ni2Ge,10.9617,10.369,-0.5928
ScBeC2,27.5124,19.574,-7.9384
Hf2Zr3Fe2,83.263,63.9175,-19.3455
Ni3SbRh,27.2732,21.5254,-5.7478
Na2CaCuF6,7.583,7.2425,-0.3405
Fe2Pd3Au2,21.167,23.3704,2.2034
K3Ba12Au5,6.5242,8.2149,1.6907
Tc3(GeMo)2,46.7052,42.6005,-4.1048
NdY6In,16.8332,17.4295,0.5963
Dy4TlPd,14.8309,19.4587,4.6278
Ga2Ag2Au3,31.547,30.7873,-0.7596
BiPd4Pt,35.6988,32.9653,-2.7335
TbTa5Ag2O15,2.2109,3.7303,1.5194
YHgAu,23.9607,23.8297,-0.131
NaCuTc3,64.6534,54.8227,-9.8307
Fe3RuI,23.8396,18.3205,-5.5191
Ga2Pb2Au3,37.5899,38.8043,1.2144
Cu2TcMo,42.2341,34.2124,-8.0217
PuVSe3,44.6863,37.1833,-7.503
TaMn(Cu3S4)2,39.3957,30.4499,-8.9458
NaCu3Tc,28.5662,25.1401,-3.4261
SmTmPd4,14.7644,18.9676,4.2033
CaCr2Tc,39.0445,32.6314,-6.413
Cu3TcMo,36.879,29.3272,-7.5518
Cs2Rb2Ca,10.8254,10.7604,-0.065
Pr(NdIn)2,12.1036,15.523,3.4194
Pr(HoIn)2,13.6825,17.3645,3.682
SnBi3Pb,48.0389,48.7628,0.7238
TmAg4Hg,23.1635,20.437,-2.7265
CeTmNi,24.054,25.1588,1.1049
LaIn2Fe,25.6151,20.2056,-5.4096
Ga2Ag3Sn2,21.8232,19.9268,-1.8963
CaCrNi2,21.3412,18.7251,-2.6161
ErSc3Ni,11.1666,12.0219,0.8553
TbPaPd4,20.1609,24.8362,4.6753
RbNa2AgGe,19.6364,15.2533,-4.3831
LiTa3W,31.0504,34.4479,3.3976
BaMoIr2Br,25.3511,24.5622,-0.7889
Ta2BeTe,31.8827,32.9557,1.0729
Cs2ScAlS4,33.7755,29.1909,-4.5845
LiTaW2,29.056,33.7031,4.6471
SiMoAs2Br,21.6467,19.3064,-2.3404
TlBiPd4,29.2346,31.1812,1.9466
Mg2UTiH6,10.0948,10.2228,0.128
NpRuN,61.3528,58.4607,-2.8921
Tc3PRu,60.3342,52.8078,-7.5264
SrMoC2,39.1884,31.0194,-8.169
Li3Ta,9.8386,12.0529,2.2143
TaTlCr,66.5637,53.8177,-12.746
ScCoBRh2,29.8244,25.3189,-4.5054
GdHgPdPb,24.3768,26.6195,2.2428
Ac2(Al2Hg)3,13.1113,14.3082,1.1969
CaCrW,30.5848,28.1726,-2.4122
TmPd4Au,19.27,22.8018,3.5319
Cs3Co5Br12,6.7369,5.3173,-1.4196
ScPbS2Cl,48.5946,40.716,-7.8786
Ga2Cu2Bi,19.6219,18.4016,-1.2204
AlInAs2Br,21.0598,18.1884,-2.8714
Ir3Rh(AuS2)4,51.1254,43.4191,-7.7063
YTmPd2,21.5325,21.6074,0.0749
InTcBr2,34.3181,32.0762,-2.2419
LiTa2W,28.4924,32.5128,4.0204
SnBi(PbS2)2,50.5923,42.8134,-7.7789
InPtBr2,34.3957,28.2918,-6.1039
InPbBr4,24.8485,23.2968,-1.5517
Ba4AgPd,5.0695,5.4958,0.4263
Sm3DyCd4,22.0824,23.9549,1.8725
Sr2AgSbS4,35.8142,27.712,-8.1021
MgIn2SnBr6,12.3515,13.2601,0.9086
InCu4Br,12.0458,12.345,0.2992
InRuBr2,20.2467,18.1905,-2.0562
Ga2CuBi,21.4435,21.6092,0.1657
YErSnAu,37.8783,35.1166,-2.7617
AlMoAu2,33.2684,33.1906,-0.0778
TaTl2Cr,62.9075,53.0788,-9.8287
ZrPb2I,52.8747,48.9319,-3.9428
LiYSn,25.4823,20.1519,-5.3303
LiYSn2,20.1777,17.523,-2.6547
InPtBr,41.0643,33.1507,-7.9136
Al2MoAu,17.1044,18.8952,1.7909
Pa2Tl(PdS3)2,50.0604,42.4966,-7.5638
Tb2SmSb,30.2918,30.2076,-0.0843
InNiBr3,11.7938,12.5764,0.7827
Cd2NiPd,17.39,17.9665,0.5765
AlMoAu2,33.3371,33.1906,-0.1465
Na2In4Si,20.6825,18.8645,-1.818
SmPaSb2,44.8308,42.8713,-1.9595
SbRuSe2,34.6458,29.3868,-5.2589
Zn2InSbBr,24.8716,23.3158,-1.5558
TbSm2Sb3,34.0436,30.7535,-3.2901
InIBr3,15.4087,16.1666,0.7579
Cs(YGa)2,10.6951,12.418,1.7229
SbC2O,46.289,36.3738,-9.9152
NbZn3B,39.2701,31.7645,-7.5056
Tl2In2Pb,38.7928,39.9682,1.1754
InIBr,9.809,15.8712,6.0622
BaScS2F,30.7025,25.9004,-4.8021
Li3YSn3,14.172,12.2401,-1.9319
In2BAu,19.0371,22.0116,2.9745
SrGdAgPb,31.2647,31.7807,0.5159
Cs2RbSbCl6,7.1473,7.6921,0.5448
LiLa2Zr,46.3681,35.5089,-10.8592
CdTc2Mo,55.2709,50.927,-4.3439
TaCrW,62.7926,51.8966,-10.896
AgSb4Pd,34.1781,27.2281,-6.9501
InTcBr2,34.3281,32.0762,-2.2519
TlSb3Ir,47.5797,41.2831,-6.2966
Dy2LuSb,32.8046,32.6723,-0.1324
PrHo6Sc,21.3015,22.9852,1.6836
Zn3InBr,11.4434,11.5838,0.1404
InSiAsBr2,22.4006,19.808,-2.5926
InFeAsBr2,26.4412,23.016,-3.4253
Hf2ScGe2,64.4636,46.2895,-18.1741
Cs2Ba2Sr,11.5698,12.4677,0.898
InBiAsBr2,21.7129,22.0899,0.377
NaIn3Br,19.2651,18.6584,-0.6067
Zn5Cr2,9.9804,8.4496,-1.5308
Na(CdOs)2,30.1746,31.2094,1.0348
NaCd2IrOs,31.3101,31.2144,-0.0957
ZnInBr2,12.2302,13.8363,1.6062
In2AsBr,15.3128,16.4879,1.1751
TiNi2I,14.4206,14.1112,-0.3094
CdTcMo2,35.949,35.1765,-0.7725
Cs2BiAuF6,18.465,18.3247,-0.1403
AcLa3PrNd,35.4671,28.3869,-7.0802
LaFeAu,33.0323,29.9853,-3.0469
Cs2Hf(SiO3)3,5.8384,3.7433,-2.0951
CrInAsBr2,23.7909,22.2866,-1.5042
Cs2Hf(Si2O5)3,1.716,1.035,-0.681
K3Sn2Bi5,31.6753,32.1746,0.4994
TaZn3O3,28.8872,20.8864,-8.0008
Er2ScAl,17.2682,19.6387,2.3706
CdIrOs2,37.1129,41.5703,4.4575
CdIrOs2,37.159,41.5703,4.4114
Hf4PdPt,113.0548,81.8699,-31.1849
CdIr2Os,37.2421,42.9556,5.7135
AgTe4Pd,36.1156,34.0047,-2.1109
TmInBr3,12.1685,15.7176,3.5491
InNiBr2,12.713,13.9182,1.2052
Rb5(AsS3)2,36.3691,27.3272,-9.0419
Pa2InS6,53.766,43.9734,-9.7926
YEr2Tm,25.8325,29.0362,3.2037
In2TcCBr,42.9212,35.7584,-7.1628
U3Tl5S12,40.6562,31.9034,-8.7528
CeMgAlZn,14.5299,12.3938,-2.1361
Tb2Er2In,22.2073,25.6166,3.4093
UPaTa,57.6288,63.0813,5.4524
InOs2Br,29.84,31.8084,1.9685
GdInBr2,17.3682,19.4394,2.0712
TlCoAs2,24.268,23.2804,-0.9876
AlPbSe2,37.6925,33.3983,-4.2942
InAuBr,26.2151,27.9197,1.7046
InAu2Br,31.5423,33.209,1.6666
AlPbSe2,37.4202,33.3983,-4.0219
InAs2PtBr,29.9191,24.1624,-5.7568
In2GePtBr,30.2518,25.2086,-5.0432
NaTm(InBr3)2,15.1226,13.5428,-1.5798
InCoPb2Br,36.098,32.5193,-3.5787
Sr2MnRu,31.239,29.5624,-1.6767
PrSc2V,34.1184,29.3513,-4.7671
InNiAs2Br,19.2989,17.2927,-2.0062
Cd2Cl,12.4752,14.1702,1.695
Pa4RePd,44.8313,49.758,4.9267
ZnIn2NiBr,12.814,13.9171,1.1031
InCoAs2Br,16.4144,15.0342,-1.3801
AcScAgRh,37.1748,34.532,-2.6428
La2PrIr,35.3184,28.5498,-6.7686
SrLa2InBr,30.8277,23.0691,-7.7586
Pm(Er2In)2,21.5855,24.6335,3.048
La2Tm2In,36.7281,31.4125,-5.3155
Nd2Tl2In,30.0328,33.1075,3.0747
VNi2Rh,47.4956,38.9578,-8.5378
NaIn2PbBr5,18.7586,18.1419,-0.6166
NaSrIn2Br5,11.4484,11.92,0.4716
In5Br,18.4443,19.3356,0.8913
Zr2AsBr,53.8739,44.7676,-9.1063
LiErSn,7.9548,12.2305,4.2757
ZrSc3As4,37.1088,27.7972,-9.3117
Y7Er2Tm3,20.7179,22.6807,1.9628
Mn2BeRh,55.0558,44.6629,-10.3929
RbNaTe2,27.2197,24.6842,-2.5355
TaCrRu,23.3474,19.4787,-3.8687
Cs2KSmF6,5.6092,7.3028,1.6936
Cs(NaSn3)2,21.8878,21.689,-0.1987
CaIn2Mo,15.3515,17.1981,1.8466
DyThSe4,40.5775,37.6683,-2.9092
In2As2Br,11.1521,12.4657,1.3136
AlTlPt,47.4734,40.3686,-7.1048
RbIn2SbCl6,10.1565,10.0054,-0.1512
CsNaSn4,21.9261,21.6494,-0.2767
TlGeMo2,16.944,20.4618,3.5178
Th2Co3SiNi12,25.8428,22.626,-3.2168
NaSr2Tb,19.6739,19.8795,0.2057
NdGdTe,31.2359,32.8448,1.6089
Th2Co12Si3Os,16.3211,17.6965,1.3753
SrPdAu6,39.2569,40.2751,1.0182
SrIn2Br,17.5176,17.6746,0.157
In(BiPt)2,56.5178,46.9345,-9.5833
K3Na2In5,16.4159,15.301,-1.1149
In(PtPb)2,55.8574,45.9138,-9.9436
AgAs2Ru,22.1929,17.7001,-4.4927
InCo2Br,17.7675,15.9596,-1.8079
Cs3InI8,22.3831,22.897,0.5138
ScIn2Mo,19.0828,20.8797,1.7969
Tm3Mg12Zn5,4.6654,5.6825,1.0171
AgAsRu2,22.0684,20.4408,-1.6276
InFeBr,14.508,12.3027,-2.2053
InTc2PbBr,61.5021,52.8301,-8.6719
AgAsRu2,21.8593,20.4408,-1.4185
InAsRuBr2,18.7836,17.1018,-1.6818
InNi3Br,10.6913,11.8004,1.1091
AgAsRu2,21.7678,20.4408,-1.327
CaNi2Ir,22.7625,20.3633,-2.3992
Na2InSiBr,19.234,15.7725,-3.4615
KScNi2,4.2702,7.5607,3.2905
Ca2Y2W,23.1199,16.3774,-6.7425
TaAg2Br,24.4986,24.2303,-0.2684
AcPdI4,28.1201,29.1521,1.032
SbRuAu,36.7729,35.9705,-0.8024
CeYTm2N4,24.9756,24.4402,-0.5354
Co2Sn6Rh,15.4903,15.3974,-0.0929
YMnPbSe4,44.7202,37.8174,-6.9028
Tl8S6Cl,49.9239,43.2302,-6.6937
AgSbPt,55.2451,40.4247,-14.8204
GdYHg,26.2796,24.0092,-2.2704
TaAsOs,29.9626,34.949,4.9864
FePtSe2,47.0515,37.3564,-9.695
Sm5Pb3S,31.4858,32.5617,1.0759
YTm2(PuSe2)3,46.7292,42.8256,-3.9037
NiCl2,0.8347,3.8888,3.0541
CoSi2As,22.1754,18.7801,-3.3953
CoPOsS,27.7373,23.9025,-3.8348
NbAlAs3,45.8332,37.51,-8.3232
Th4IrPd,45.8027,49.1145,3.3118
ScTaAl,86.9678,73.9096,-13.0583
Th2MgZn3Pt4,51.0467,40.026,-11.0207
TmScCdS4,38.5263,33.785,-4.7413
SrCu2Ge,5.1574,8.3689,3.2114
CoGe3Te,15.2469,15.8795,0.6327
Cr6Sn2HC,21.6755,18.8603,-2.8152
NaLiSi2Tc,35.1967,28.0458,-7.1509
Na(AgRh)2,37.4811,28.3307,-9.1504
Ca2NiPbSe,42.2692,35.3827,-6.8865
BeIn2GeSb,19.1477,17.9693,-1.1784
Li2Ac2LaTl2,40.2526,39.5483,-0.7043
Th2SnPt,59.8234,55.9543,-3.8692
ThSnPt,58.3711,50.3907,-7.9804
YTm2Hg,27.7249,26.761,-0.9639
Pr4PdPb,3.0199,6.1724,3.1525
Zr3Zn2Cd3,45.8354,38.3474,-7.488
Cs2NaPmCl6,10.2466,11.7259,1.4793
GaAgPb,21.3535,22.1139,0.7604
K2Ag2Au,26.6676,24.3267,-2.3409
SiSb2Ir,37.3656,31.8208,-5.5448
Li2BeCu,6.2915,4.8377,-1.4539
PmSm2DyBi5,41.6087,43.1395,1.5308
YLuSe3,19.978,15.6346,-4.3434
SiSbIr2,36.5191,35.6634,-0.8557
Tm4SbPd,25.4056,25.654,0.2484
Nd(P2Ru3)2,11.6297,13.8413,2.2117
U2PaS6,59.1435,49.717,-9.4265
NbAlSi2Au,53.5527,44.3033,-9.2494
ZnBiIr3,43.8237,41.767,-2.0566
PmPu2S3,45.1723,40.5888,-4.5835
Li2BeCu,6.3689,4.8377,-1.5313
ZnBiIr,26.5396,26.7327,0.1931
Y6Er2Tm3,21.2814,24.6879,3.4065
Sc2TaAl,67.1394,56.7526,-10.3868
RbTbS14,51.1786,37.2554,-13.9232
NbTeCl3,39.1345,32.8659,-6.2686
Ba2Tl(SI)2,28.6868,24.757,-3.9299
CaMoPb2,31.7941,33.6874,1.8933
Er3(GaSn)2,20.3092,22.3233,2.0141
Ba2Sr3Ga2,10.6097,9.3407,-1.269
BaAc2Sb,43.1049,42.3969,-0.7079
CeTh3(NpS3)2,56.9441,50.1323,-6.8119
LiMn2InMo,48.7033,40.6662,-8.0371
Ac4TlPd,40.9007,46.0427,5.142
AlMoOs2,30.4063,31.8337,1.4274
CsGa3,9.7813,11.7507,1.9694
Tc3B,2.0166,3.1519,1.1354
HfSn3Sb,51.2933,40.8061,-10.4872
CeGa3,7.8534,10.5694,2.7161
Pr3BS6,24.9389,17.5336,-7.4053
TaAsOs,29.8078,34.949,5.1412
VCo3Ru,25.4494,24.8706,-0.5789
TaAs2Os,25.0806,28.9909,3.9104
Tm2GeI2,22.135,23.8746,1.7396
Ce2ThS3,45.7323,40.3955,-5.3367
ScSnAu,34.2463,31.6943,-2.5521
Tl2GePt2,57.8397,47.1119,-10.7278
Ga3SbAs,16.6981,15.1508,-1.5474
LaMg2InH8,8.2071,6.3767,-1.8304
ScB3Pb,13.6526,15.0831,1.4305
Re2TeAs,33.6597,37.3063,3.6466
K3Na5Hg2,14.6681,11.8776,-2.7905
Na2Pb2Br,36.233,32.5837,-3.6493
NaBeSbI2,31.5694,29.1993,-2.3701
Pu2GePt2,55.8531,47.0088,-8.8443
TiPbSe2,37.7065,34.8747,-2.8317
Ba4PRh,10.7752,9.3762,-1.399
Hf2(ZnIn)3,46.0829,36.3411,-9.7418
RbPAu4,33.4753,33.1524,-0.3229
Rb2InAg2,15.3167,12.9223,-2.3943
Rb2In5Ag4,20.7783,18.7217,-2.0566
Mo3RhI,25.3297,23.0429,-2.2868
LaPaP2Rh5,40.2069,30.8618,-9.3451
Nb3HgTe,95.0329,78.0916,-16.9413
K4YBi3S8,41.4405,34.1748,-7.2657
CeTm4Pu3S8,49.2156,42.9594,-6.2562
Bi2OsI,44.5982,46.1026,1.5044
Ge3MoRu,13.9258,14.6109,0.685
Y2Er4Tm5,27.1535,29.4858,2.3323
Np2TlS4,51.1289,43.7648,-7.3641
Y2ErTm12,23.7273,25.8765,2.1492
CeGdPd,23.7055,26.396,2.6905
La3RuI,43.6143,29.9329,-13.6814
Be3Fe5,13.6121,9.4916,-4.1205
Si3SnRh3,25.281,15.3128,-9.9682
Tm2(ZnIn)3,17.6678,18.8945,1.2267
Cu3(AgSe)2,22.1472,19.0168,-3.1304
Ti4GaP,2.8696,4.8739,2.0043
Ca6Ac2Sm,20.5496,22.3065,1.7569
Ho2IrPb2,40.5856,44.0079,3.4224
Sr2Mg(ZnAg4)3,24.1072,20.2527,-3.8546
Er2Tm2Cu3,19.8798,21.8079,1.9282
Np2(ZnSn)3,28.1377,29.5064,1.3687
LaCe3S4,42.1413,32.9978,-9.1435
Cs3Nd2BiS6,41.6685,35.1443,-6.5243
Ho2TmHg2,13.7204,16.9885,3.2682
Gd2SiRh,29.9895,26.8934,-3.0961
ZrGeBi2,49.6707,47.5715,-2.0992
FeRuSe2,45.9075,36.4018,-9.5057
Ac2HoTl2,40.1038,45.0273,4.9234
CaHgRu2,9.7126,11.7142,2.0016
Zr4ZnP,59.3718,46.6332,-12.7387
Ho(ThIr)2,40.4062,45.4537,5.0474
PIBr4,13.2208,13.1986,-0.0222
NbSnAu2,64.1651,58.7947,-5.3704
Ce2YTmN4,24.341,23.5405,-0.8005
NpTl2InCl6,16.0378,18.2548,2.217
Rb3Ac(BiS3)2,42.221,35.4369,-6.7841
Rb2NaBiBr6,13.9436,14.2548,0.3111
Zr14(CuS8)3,65.9455,48.682,-17.2635
La(MnAl2)4,36.104,29.8763,-6.2277
CeSbIr2,38.7218,39.9855,1.2637
Sb2PbAu,47.5787,43.2999,-4.2787
Ca4CoPb2,20.6586,20.7783,0.1197
NaTa2ZnIr,35.1644,32.6545,-2.5099
FeSbSe2,45.8329,37.1002,-8.7327
Ta6AlBi2,37.2441,41.0397,3.7955
Y12ErTm3,17.9955,19.2362,1.2407
CaCoPb2,32.5715,31.7699,-0.8015
PICl4,8.6783,7.6692,-1.0091
Ca2HgRh,12.091,10.017,-2.074
KMnTe2,48.4523,41.8878,-6.5644
ScGaSi,15.3597,14.8381,-0.5216
La2TlI2,39.0401,33.258,-5.7821
Ba2BeHg,2.7002,2.0686,-0.6317
KMn2Te,63.8492,52.9366,-10.9127
KRb2PPd,12.7697,9.6847,-3.085
MnPt,94.2843,72.4276,-21.8566
Co2Re,8.6667,19.0317,10.365
Pm2SmDyBi4,39.1426,41.7095,2.5669
PmAsRu2,25.6389,23.7244,-1.9145
Nd2NiSb4Ir3,37.8437,34.6502,-3.1935
NaLiSe,13.0367,11.0532,-1.9835
SbPd2I,27.0677,24.9184,-2.1493
AgPd4Pb,25.6805,26.6091,0.9287
FeNiAu2Br,41.0523,35.0998,-5.9525
YScAu2,22.6703,26.9345,4.2641
Pr2TlI2,16.4999,18.7346,2.2347
K2PRu,6.7593,7.4905,0.7312
Hf4GeRh,97.0103,69.1238,-27.8865
BiPd4Au,28.6588,30.8613,2.2025
Rb2BiBr,16.5955,17.2786,0.6831
NdSm2(YS2)3,36.0759,29.1406,-6.9353
Be3VNi,28.6138,23.5547,-5.0591
Sm2PtI2,35.8501,31.4013,-4.4489
HfU6HAu2,65.2299,62.6788,-2.5511
BaBeHg,2.4019,2.188,-0.2139
Be(VNi)2,47.3704,38.6549,-8.7155
NbVRh3,74.5525,56.7262,-17.8264
CdPd4Au,22.7354,24.7559,2.0204
In(PC)2,27.6751,20.6813,-6.9938
ZnAgPb,26.0481,26.6065,0.5584
Sb2Pb2Au,48.6137,45.4339,-3.1797
AgSbPbAu,44.0911,40.9522,-3.1389
Fe2HW,11.7773,13.5504,1.7731
BeSI2N,39.9689,32.0691,-7.8997
Mg2MnAlH8,13.1555,10.3117,-2.8439
BaBeHg,1.8028,2.188,0.3852
Nd3Sm3YS8,39.0999,31.8309,-7.2691
Cu(PC)2,26.9997,18.1832,-8.8165
Tl3Ag3(SbS3)2,36.9308,27.8871,-9.0437
PuCdPd4,26.6957,29.0,2.3044
CdPd4Pb,23.557,25.5625,2.0055
Y2TlS,40.6792,39.3136,-1.3657
Ca2SbPt2,42.2667,28.9801,-13.2866
CaY(TeO4)2,22.3925,19.3465,-3.046
CeY3(ScP3)2,35.1151,26.3682,-8.747
Cd2In2Bi,24.4387,26.0524,1.6138
YNp2S5,45.0988,37.9469,-7.152
NaNbPt2,80.7093,61.3999,-19.3094
Cu(Ni2Sb)2,23.1619,19.4802,-3.6817
CsSnP,12.1457,15.0249,2.8792
YNb2S5,71.5138,55.3688,-16.1449
Na2NbPt,66.8406,52.9819,-13.8587
VTe3Pd,49.3997,42.6262,-6.7735
Sm2Cu(SiNi4)3,9.8905,10.0454,0.1548
CeY(PaP2)2,28.9734,28.4208,-0.5526
Na2SrSc2,15.1049,14.1676,-0.9373
Ca2YMo,23.2146,17.0496,-6.165
CePd4Pt,30.3326,28.1386,-2.194
PRhS2Br,36.8324,30.3339,-6.4985
La2In2Bi,34.5886,29.7298,-4.8588
CdInBi,23.8031,26.6207,2.8176
AlTc2Sb,53.2319,44.991,-8.2409
SrAl2ZnAu4,26.7303,28.0343,1.3041
SnGeSb2,30.0258,26.1835,-3.8422
BiTeP2S,33.9447,33.3818,-0.5629
TiGa2Au,23.4189,20.7091,-2.7097
Fe2Cu2Pt3,61.5841,44.2349,-17.3492
CdSbPtN2,32.2644,26.8864,-5.378
AcLa3Nd,44.5228,35.944,-8.5789
Ga2Fe2Co3,18.8965,14.3715,-4.525
AlTl2Se,38.0843,36.2853,-1.799
MnSe2,65.3031,52.4393,-12.8638
RbZrSb2N,46.352,36.3075,-10.0446
ZrPaBi2,68.5334,65.9903,-2.5431
TaGeSb3,36.7786,31.3952,-5.3834
In2BiBr,23.5996,25.3942,1.7946
Th3(FeGe)2,30.5022,33.3005,2.7982
K2NiHg,7.6947,7.6597,-0.035
InSbI2N,23.8823,21.0295,-2.8528
AlTlSe2,37.7396,33.0889,-4.6507
Tc2GeP,49.4039,44.7093,-4.6946
Cs(GeCl2)2,4.0549,5.3823,1.3274
Sr2MnTc,55.7412,47.9228,-7.8185
Fe2Ni2Pd3,34.651,27.2455,-7.4055
InPd4Pt,29.7863,26.7682,-3.018
Tl2ReSb,47.7349,46.0028,-1.7321
Cs2TlIn2,25.7601,26.61,0.8499
Ce6Ga3Au,16.9024,19.1409,2.2385
Sm12Tl6Ge,32.1073,33.4615,1.3542
Th3Zr2Bi3,62.6954,59.4425,-3.2529
NaSr2Sc,14.46,14.4311,-0.0289
SrZr,34.5679,28.1853,-6.3826
Y2USe5,40.8496,35.4495,-5.4002
Pr2Cr(ReN3)2,66.0208,59.7268,-6.294
Y5Ir3,0.0,4.6201,4.6201
VPd3Rh,39.8527,33.9713,-5.8815
Tl2Si2Pt,39.7307,32.1676,-7.5631
Zr2(IrRu)3,52.9872,43.7727,-9.2145
Ca3Os,14.7008,16.5912,1.8904
Sr2MnTc,55.7383,47.9228,-7.8156
Mg(IrRu)2,23.8458,22.5852,-1.2606
Fe2Pd3Rh2,21.7091,19.3568,-2.3523
DyPu7S8,59.8307,53.4488,-6.3818
UNbN2,51.7383,48.7018,-3.0366
Sr2YNi2,40.0652,34.3782,-5.687
Tb2PrTi,13.8078,17.2642,3.4564
Tl3IBr,37.1308,37.4186,0.2878
HoErPd4,14.9951,19.1794,4.1842
PrSmRu,30.4458,30.1145,-0.3313
ThCoIr,21.6319,30.9066,9.2747
HfInPd4,38.4659,33.5534,-4.9125
BiSbTe2N,37.5941,34.4299,-3.1643
Dy2Ge3Rh2,25.0344,22.033,-3.0014
DyPa2Re,50.8096,55.8243,5.0146
Y2ScPdO,66.6259,58.3577,-8.2682
K2NpTe4Pb,38.6119,37.4194,-1.1926
ScVTc2S,105.2697,85.5416,-19.7281
YTcHg2,61.6335,53.6656,-7.9678
HfScCd,56.1952,43.8925,-12.3027
Y2ScPdO,68.048,58.3577,-9.6902
LiReTe2,31.3664,30.5792,-0.7872
SmUCo4,19.6181,22.7194,3.1014
Cd2AgAu,29.1944,28.5589,-0.6355
BaCaHf2,74.1024,54.3063,-19.7961
Fe2BiPb,27.1181,26.6682,-0.4498
Be2CuGe2,7.0754,6.3584,-0.7171
Si2AsRu,27.9045,21.8941,-6.0104
RbNbGe2Cl,38.3124,30.4215,-7.8909
SiAs2Ru,26.267,21.7719,-4.4951
ZrAg2I,42.5813,36.2979,-6.2834
Si2AsRu,27.5993,21.8941,-5.7052
Rb2CrSbBr6,20.2926,18.5791,-1.7135
RbGeSbBr6,17.2271,15.8736,-1.3535
SiAsRu,28.3963,25.072,-3.3243
Cd3(Ag4Au)2,31.0907,27.4817,-3.6089
RbAcS2,37.9345,34.446,-3.4885
K2OsN,32.6012,30.7016,-1.8996
LaDyMgCu,26.9539,21.416,-5.5379
CdAgAu,32.5784,31.6218,-0.9567
BaBeHg2,1.6345,1.463,-0.1715
LaCuSb,33.7713,22.3342,-11.4371
Cd8Ag2Au,23.9129,23.2319,-0.6811
NbVNi2,70.698,59.215,-11.4831
SrNbC3,68.3493,51.5128,-16.8365
Ti3Cu5,6.0697,7.7561,1.6865
LaCu4As,14.6258,13.1886,-1.4372
MnBe2Tl,38.071,34.8615,-3.2095
CsIn2Ir,26.9366,29.117,2.1804
Cd2Ag7Au,30.6434,26.5215,-4.122
Ti6BiIr,15.7228,19.5001,3.7773
IrWAu,44.2189,48.5442,4.3253
IrW2Au,42.3022,47.4929,5.1907
Y2AgPd5,26.6055,23.3589,-3.2467
Y2TlPb5,42.3864,44.0391,1.6527
RbTl2S,36.9092,34.5417,-2.3676
YCuTeAu2,41.6963,38.7746,-2.9217
LaCe3(DyTe3)2,34.7821,32.5369,-2.2452
SrTlNiS3,37.7509,30.0089,-7.7421
LiCuIr,11.6524,16.205,4.5526
IrWAu2,44.5653,48.2481,3.6828
K(SbIr)2,37.6813,34.6558,-3.0256
Li2CuIr,12.8241,14.951,2.1269
Na3MoOs,30.997,25.6298,-5.3672
CaSc2Ta,70.6532,58.3294,-12.3238
Li2CuIr,12.7454,14.951,2.2056
ErTh4Sb5,50.8591,47.5293,-3.3298
MnVS,86.6515,67.9167,-18.7348
Ba(GeSe)2,22.3603,19.7434,-2.6168
Li2Re2P,26.3408,23.8532,-2.4876
Cu2OsW,87.4734,70.8305,-16.6429
Tb(Y4In)3,17.0659,16.9457,-0.1202
CuOsW2,95.349,80.2511,-15.0979
ScBSBr2,24.9423,23.0075,-1.9348
LiTmInCo,15.2717,16.6354,1.3637
Cu3AsRh,16.9919,14.5936,-2.3983
CuOs2W,96.1283,79.6239,-16.5044
ZrTiFe2,20.6724,17.6119,-3.0605
Pr4TlHg,5.5134,7.0065,1.4931
La2Dy2Hg,31.3811,26.1574,-5.2236
Cu2AsRh,18.0648,15.9581,-2.1067
ThU3S4,60.937,54.2141,-6.7229
SiPdRu2,16.2866,14.5749,-1.7117
RbVTe3,46.5281,40.4463,-6.0818
PaAl2GaPd4,19.7445,21.6659,1.9214
AlTl2Rh,38.7315,36.2787,-2.4527
Pm(Ho2Hg)2,19.656,21.7869,2.1309
AgSbAs4,19.8823,17.5637,-2.3186
HfNi2Te,49.4265,40.5358,-8.8906
ScTc2Ag,93.4469,78.7858,-14.6611
KNb(PSe4)2,45.2041,36.5384,-8.6657
ScTcAg2,77.8877,65.4801,-12.4076
BeTcAg2,40.2179,34.223,-5.9948
Lu3ScS,39.6436,38.6004,-1.0431
CsBeV,49.274,40.2388,-9.0352
ZrTeAu2,58.5058,53.2984,-5.2074
AlTlRh,34.7033,31.2049,-3.4985
K2SmPuTe4,34.9439,34.4021,-0.5418
TaRhW2,40.6613,41.5927,0.9314
AlTlRh,34.0549,31.2049,-2.8501
PrTlAu4,38.8011,40.4764,1.6753
PrDy4Ho,22.7609,25.4938,2.7329
PrThAu4,41.0193,43.1064,2.0871
AlTl2Rh,38.7055,36.2787,-2.4268
K2NiOs,18.7902,19.4833,0.6931
ErNbP,34.0706,33.2285,-0.842
NbBi2Mo,61.9701,58.0133,-3.9567
Y2HfPdN,66.1098,50.4535,-15.6563
AlVPS2,62.7085,47.0048,-15.7037
YSc(SnPd2)2,39.8701,35.3265,-4.5436
BaFeOs,26.8479,23.1477,-3.7002
BaNb2I,77.7345,64.8927,-12.8418
La2Nd2Os,32.6279,29.4542,-3.1737
TaRh2W,43.2067,40.5752,-2.6315
Ce3PuS4,44.7759,37.8016,-6.9742
Ge2MoRh,20.4877,18.8027,-1.685
Al3FeAu,11.9734,13.2152,1.2418
Mg(MnCd)2,44.1779,37.8756,-6.3023
NpInRu4,25.8414,29.2229,3.3815
LiRe3,30.3915,34.8081,4.4167
TbCeYPb,29.3971,32.4722,3.0751
Sc3AuN,17.2029,12.535,-4.6679
BaFeAsSe2,37.0674,31.3215,-5.7459
TaMoPb,36.2309,40.0485,3.8175
BaHgAs2Os,13.9675,14.5609,0.5934
YBP3,42.2983,35.1257,-7.1726
CaRuW2,34.9273,33.802,-1.1253
Y(AgTe)3,28.869,26.4509,-2.418
Ac2Al4ZnSi3,31.1686,28.3757,-2.7929
BeTlS3,45.5343,35.4426,-10.0917
SrBiIr2,38.4191,38.5948,0.1757
CeY3Al8,22.2127,18.3927,-3.8201
Be2PIr2,16.9958,17.9069,0.9111
YCo2BiSb,41.862,35.6685,-6.1935
NdY3Al8,22.4608,18.3362,-4.1246
SrGeBi2Mo,30.0949,31.1994,1.1045
Ba2GdAsO6,2.3703,4.492,2.1217
TbY3Al8,22.3263,18.4888,-3.8375
ZrPbS2,46.8573,36.6808,-10.1765
RbSm(PO3)2,1.6433,1.2376,-0.4057
RbSb(PO3)2,11.1307,8.2301,-2.9006
BaRe3As,36.8391,34.6676,-2.1715
La2PmHg2,21.7101,17.1472,-4.5629
Be3TlS,22.2323,18.9913,-3.2409
Tm4In2N,22.5453,25.049,2.5037