Formula,E_hull_DFT (eV/atom),E_hull_ML (eV/atom),Delta (ML - DFT)
Sm2(TmSc)3,19.6801,21.8811,2.2011
Tb3Sm2Sc3,18.1596,20.3213,2.1617
Zr3NiS,71.8063,59.4707,-12.3356
Sm2V2C3,69.5725,52.8913,-16.6812
Pm2YEr,23.226,25.8991,2.6731
TlCdSb4,41.726,36.8529,-4.8732
InCuP2,8.8517,8.3009,-0.5507
CsZr2S,64.4156,52.9573,-11.4583
Na12Pb3Cl5,15.1259,13.3722,-1.7538
YbRuPb,19.6456,25.4124,5.7668
Rb(SrZr)2,42.1275,37.3487,-4.7788
Yb2Fe3Ru,19.9371,17.8666,-2.0705
La2MgPbO6,19.1572,19.375,0.2178
YbGaRu,5.7026,10.2196,4.517
Yb3CdRu2,26.0719,28.279,2.2071
Pr2Pa2Te7,37.0869,36.5272,-0.5596
Yb2AgRu,29.7019,29.4695,-0.2324
Li3(HgAu3)2,27.3486,27.605,0.2565
Y2FeRh,21.0484,18.9349,-2.1135
YbPaRu2,33.2885,37.3528,4.0644
La2TmGa2,29.6941,25.9176,-3.7765
InRe2Hg,25.7115,28.5133,2.8018
Ca4Y3TmTe8,29.1158,26.0651,-3.0507
Ag2GeBr4,16.5111,14.998,-1.5131
Zr2Re2C3,77.01,62.7926,-14.2174
YLuMnRh,48.6621,42.3921,-6.27
Zn2GaIr,20.6709,18.6234,-2.0475
Si2HgBr,10.9682,8.0897,-2.8785
EuPaIrPd,38.7458,42.1372,3.3914
ZrFeSbS2,59.6274,45.7897,-13.8377
Tl2Ga2Sn,27.899,29.0972,1.1982
Sr3BiC,30.909,27.6778,-3.2312
Ca2MgIO6,21.2223,19.5189,-1.7034
TcRh2Pb,61.212,51.1825,-10.0295
ScHgBr3,8.9313,7.5402,-1.3911
Y2MnVNi,97.0787,80.5605,-16.5183
As2Cl,7.1297,7.1962,0.0665
K2RbBr,8.6081,8.0221,-0.586
YThTiIn,43.488,39.7127,-3.7753
Pm3(Sm2Sc)2,21.9345,23.4407,1.5062
NaBeZnP,11.4044,8.4359,-2.9685
Ca2Ce2Tl3,30.0916,31.7635,1.6718
LaY2Tm9,29.6361,29.6854,0.0493
Li4HfP2,27.2512,20.2871,-6.9641
La2Y(TlZn)2,34.3807,30.8743,-3.5064
LaY(ScTl2)2,34.5563,34.6307,0.0744
ZnGaIr2,29.4723,28.6914,-0.7808
Mn2CdC2,62.4145,48.1197,-14.2948
LaYTlAu,40.3536,38.9746,-1.3791
HfP,63.5449,47.6485,-15.8964
YNb2PdO,78.9188,63.7647,-15.1541
BaNaSr,12.8945,12.2331,-0.6613
AsPdRu3,18.3093,18.3316,0.0223
Zn2Ga2Ir,15.1659,14.2511,-0.9149
Na(Ga4Ir)2,16.1235,17.2779,1.1544
Sr2SbPb,30.4673,28.4719,-1.9954
AlIn2Ir,21.614,24.1607,2.5467
CrSbP,50.4295,45.5764,-4.8531
AlHgB,0.0,1.7907,1.7907
Pu2PaGa2,36.3256,38.6787,2.3531
BaSrCaSm,12.7756,12.8708,0.0952
AsCl,0.0,0.0158,0.0158
YBiPd3,24.9052,25.4914,0.5862
Ga2BiPb2,35.398,36.5385,1.1405
RbSbPb2,34.5837,34.1947,-0.389
EuIn2Ir,20.772,23.6212,2.8492
AgBi,39.9652,38.562,-1.4032
Ce2Ga2Pd,15.1784,16.1865,1.008
GdNi,20.1164,21.9329,1.8165
Zr2Zn2I,42.664,38.3283,-4.3357
Ga2PdPt2,46.3334,35.1234,-11.21
NaSr2Tc,34.1476,30.4374,-3.7102
Pa2Ga2Pd,31.1433,32.6992,1.5559
YNiPd2Pb,51.1914,47.8712,-3.3202
Cd(CuSb)2,24.7775,22.4842,-2.2933
Ta3Pt5,69.0539,55.2252,-13.8286
Nb2CuBi,86.561,73.1161,-13.4449
NaMnAu2,55.9457,53.8832,-2.0624
Cd2CuSb,22.607,21.6464,-0.9607
Pm2ErGa2,14.0928,16.7126,2.6198
Ac2PmGa2,33.7377,35.8609,2.1231
RbAl2Se,11.0856,10.2019,-0.8838
PaTl3,55.1798,56.6189,1.4391
YTaPd2W,40.6372,36.8728,-3.7644
CaSbRuPb2,35.4703,34.1028,-1.3675
Cs2LiF2,7.6383,9.0742,1.4359
Zr2(ScIn)3,35.4395,31.0332,-4.4063
InAg2Ru,25.3488,22.9944,-2.3544
GaHgPbAu,27.0699,28.2142,1.1443
CaCuMo2,22.888,13.3535,-9.5345
CaCuMo2,22.7582,13.3535,-9.4047
SrCoI,4.2933,7.1622,2.8688
In2AgRu,22.3048,22.3545,0.0496
In2SnPb,25.4542,27.8939,2.4397
Tb3Sc3In2,17.8199,18.3632,0.5433
NaCaAlSn,13.2796,13.6635,0.384
AlSnPt2,50.1965,39.0697,-11.1268
Ca2La2Cd3,24.2246,21.0201,-3.2046
CsNa(AuF4)2,16.7907,16.6221,-0.1686
Sr(TeAu)3,36.6835,36.231,-0.4524
Hf2Tl2Ge,73.6931,58.6487,-15.0444
NaScBeBr2,15.6639,11.3381,-4.3258
Pm(ThGa)2,28.7816,32.2358,3.4542
RbCoGe2,3.7482,5.02,1.2718
Rb2MnCo,25.537,20.7726,-4.7644
RbSrCaCo2,13.8354,10.6191,-3.2163
YTl2Pd,42.0977,40.1565,-1.9412
YTiVP2,46.1063,34.2266,-11.8796
K2SmCuCl6,3.0753,3.9208,0.8455
Sc3AgO,52.7312,47.4257,-5.3055
FeReTc2,67.4647,57.275,-10.1898
EuHoCuPb,28.671,30.9657,2.2948
CaBeSn,7.9675,7.0347,-0.9328
CdSbP2,14.2134,14.9222,0.7088
Rb2RuWI6,29.6005,27.1782,-2.4223
AcYRh4,45.1684,37.108,-8.0604
AgGeIr2,26.2974,29.8733,3.5759
RbRe2Sn,21.1275,24.3918,3.2642
CeFeSi3Ir,12.0404,12.134,0.0936
Na2BiOsO8,11.8305,13.3797,1.5493
Sr3Co5I12,6.3186,7.8761,1.5575
ZnCdSb3,32.8309,28.5125,-4.3185
InIrRu2,28.4644,27.4012,-1.0632
ZnCd2Sb,22.8525,21.7965,-1.0561
LaYAs2Rh,28.1442,21.6544,-6.4898
TiNi2Pd,12.3739,13.2874,0.9134
Ag(GeIr)2,27.3123,28.0823,0.7701
Sm3(YTl)2,28.9814,30.7463,1.7649
CaCu2Sb,17.5734,15.4363,-2.1372
EuSnRu,0.0,3.0753,3.0753
ScCoS2,33.3941,28.8277,-4.5664
NaCr(ReO4)2,21.6628,18.5068,-3.156
Eu2ZnIr2,32.9873,31.9444,-1.0428
Sb3W,37.5774,32.9926,-4.5848
CeMnNi2,62.265,55.5136,-6.7514
Sc2Al4In,8.2654,8.1981,-0.0673
RbHfCo3,35.0286,26.8399,-8.1888
CaYPd,23.3192,20.8247,-2.4945
Rb3HfCo,32.9611,23.2078,-9.7533
Pm3SbPd,27.4646,26.8067,-0.6579
Y2NiPtO6,29.5673,25.9539,-3.6134
Ca2SbW,25.4046,24.1252,-1.2794
NaTmSbAu,36.2202,35.1439,-1.0763
ScTaO4,38.0998,36.5759,-1.524
CaSbW2,33.943,33.6438,-0.2993
Ta2Ni2Mo,24.8149,27.6839,2.869
ZrSc4Cd5,21.2093,21.4885,0.2792
ZrScCd,40.7878,37.5354,-3.2524
CaRe2Pb,29.6867,34.6006,4.914
LaY2Rh,31.7103,26.7903,-4.9199
LiHgRh2,26.9363,19.9118,-7.0245
KTa2Ag,30.207,30.2642,0.0572
CoB2Sb,15.5396,14.6976,-0.842
K(SiTc)2,39.1738,32.5913,-6.5825
YFeRh,24.2068,20.1241,-4.0827
SrReOs2,43.3134,40.145,-3.1683
NaRe2Au,34.0265,37.5873,3.5608
Cs6RbAuF,22.0727,22.2167,0.1439
Nd3(YRh)2,28.0546,25.0284,-3.0262
NdYRh,28.7204,26.261,-2.4594
BaCaRe2,29.1921,27.2255,-1.9666
NdYPdRh,34.253,29.1207,-5.1323
Ba2Ge2W,12.1874,13.4786,1.2911
NdYPdRh,34.2839,29.1207,-5.1632
LiTmHg3,5.8184,7.0548,1.2364
CuMoAsBr2,21.2679,15.7362,-5.5318
PRuCN,37.9491,30.9421,-7.007
PrY2Rh,18.5906,17.0182,-1.5725
GeIr2O,17.7803,22.0849,4.3046
Cr2TcRh2,33.1937,26.6281,-6.5655
YMnCoP2,42.7648,34.1456,-8.6192
GaPS2N,39.6483,28.895,-10.7533
SrPr2SmAs4,9.817,10.3628,0.5459
SICl2,20.4329,16.8602,-3.5727
Mn2Al2Ge,44.9177,36.5243,-8.3934
Li2AlSb2,17.473,14.4869,-2.9861
Nb2As2Se,74.5916,62.559,-12.0326
Tm7(PtPb)2,44.6266,41.6937,-2.9329
Hg6S4Br3Cl,16.4397,12.1709,-4.2688
U3CuN,32.8984,38.2005,5.3021
Cs8Au5F,30.8419,31.5284,0.6865
Sm2Y2Tl,20.5989,23.4296,2.8306
LiYIn,13.1287,13.3237,0.195
K2AgI4,20.2198,18.9361,-1.2837
ZrAgPb2,58.7038,54.0059,-4.6979
Tl3AgSb,46.2606,43.3146,-2.946
TaOs2Pd,25.7086,32.6179,6.9093
Ti2V7Tc2,99.8849,77.4335,-22.4514
Ca2Tb3Pd2,17.4112,19.4382,2.027
Sm2YTlO,37.024,35.1532,-1.8708
SmYTlOs,39.0409,38.7743,-0.2667
Na2SrTeSe,29.8904,25.5353,-4.3551
PrPuSc2,19.5039,21.4279,1.924
Ca2MoRuPb,20.703,21.0191,0.3161
NaSmGdAl,20.4281,21.5025,1.0744
PuPS4,50.3528,42.7923,-7.5605
CsSc2Mo,22.3521,21.9665,-0.3856
SrNbAu,66.0393,56.046,-9.9933
Sc4TaMn,62.7202,52.1054,-10.6149
Mo2As,4.9705,10.9768,6.0064
SnPt4Pb,71.7155,55.4912,-16.2243
Cu3As,3.4401,6.4122,2.9721
Zn2HgS,15.9237,12.9627,-2.961
NaCaCuS2,31.4556,22.1899,-9.2657
PmY(MoN2)2,26.8778,24.4714,-2.4064
K2IrSe,29.2152,26.1936,-3.0216
Sr3NbAu,46.3185,40.6441,-5.6744
SrPmAu3,31.2242,33.8702,2.646
Sc12NiSn6,20.1228,16.0459,-4.0769
AcPm2TaO8,10.7814,13.2644,2.483
Cs8Au3F2,26.3403,26.7898,0.4495
Ca2Ac3Pr2,28.6495,29.4411,0.7916
Ta3NbTl2O12,18.8981,20.5479,1.6498
CdSb3Ru,34.3685,30.5715,-3.797
Tb2Y(TlTe2)3,38.2928,38.0956,-0.1972
LiEu6,25.3361,25.5331,0.197
BaLiHg2,2.4215,2.1959,-0.2256
SrPtAu3,44.4861,41.5679,-2.9182
CuPPb2Br,35.0154,31.9746,-3.0408
SrTlP3,15.5542,16.3579,0.8037
Ca2Th2Rh3,40.6964,36.2684,-4.4281
Tb4Y2Tl3O2,38.8319,36.8873,-1.9446
Ta2SnPt,37.9607,37.33,-0.6307
Y2PuTl3,41.7864,44.0418,2.2554
Si3SnRu,22.6221,15.1198,-7.5023
CrOsRu,26.8914,26.6686,-0.2228
SrSn3Pb,25.7236,26.3149,0.5914
Y2ZrPd9,28.7917,26.7235,-2.0682
V7(MoRh)2,93.8312,73.0843,-20.7469
Ti2IrRu,20.9728,21.1718,0.199
SrTbHg3,5.4654,7.6142,2.1488
Nb2V7Mo2,110.6858,86.1805,-24.5053
Sr2SiCl,29.8949,24.8079,-5.087
TlCd2Ag,29.1662,28.3475,-0.8187
Mn2Al2Co,52.6819,40.5057,-12.1762
Mn(InSe2)2,46.965,39.161,-7.804
PdW2I,30.4497,33.325,2.8754
CaCuSb,20.8449,18.327,-2.5179
MnInSe2,53.5277,44.709,-8.8187
PuInSb2,45.0772,42.576,-2.5012
Sc2TaMn2,84.861,69.1099,-15.7511
MnInSe2,53.8327,44.709,-9.1236
MnInSe,56.2949,46.7643,-9.5306
CeSc2Pb,21.6666,24.0987,2.4321
Sc2TaMn,91.0286,75.3536,-15.6751
BaSr2Tc,30.5856,27.7864,-2.7991
Mn2Al2Co,45.5909,40.5057,-5.0852
V7(TcMo)2,101.364,80.0978,-21.2662
PRu2AuC,31.2642,28.6736,-2.5907
KRb2HgCl6,1.1073,1.796,0.6887
Na3TcBr,36.1351,29.6156,-6.5195
KRb2HoCl6,1.8254,3.7448,1.9194
KTl2PtCl6,18.7447,17.1797,-1.565
Ti2PdRu,3.1757,9.7639,6.5881
YHo2Pb9,45.0354,46.0766,1.0412
PuNiRu2,27.5764,30.058,2.4816
BePRh,18.1713,15.3555,-2.8158
Cu(SbP)2,24.6553,20.5119,-4.1434
AsPd2C,27.4539,24.079,-3.3749
GdTeAu4,43.0171,44.3038,1.2867
YPaIn,28.9107,32.015,3.1044
CeYInOs,26.2463,27.9542,1.7079
SbTe2PtBr,53.6572,44.4276,-9.2295
TeAs2PtBr,34.5696,28.2181,-6.3515
Sc(Pd2Au)3,21.615,23.5918,1.9768
LiCe2YIn4,19.3891,19.5954,0.2062
SrAc3Tc,55.2518,54.789,-0.4628
BeP2Rh,15.4513,12.5204,-2.931
Ta3OsW,76.551,69.0957,-7.4553
Ca2Tb3Pt2,37.652,31.9507,-5.7013
Sm(DyGa)2,14.3496,17.2044,2.8549
Tb3IrPt,35.079,33.7642,-1.3148
La2ScCrS6,41.5691,31.656,-9.9132
Ni3Pd7,14.4004,16.0442,1.6438
Zr3TaSb,76.0578,65.5263,-10.5315
TbDyHg3,7.797,10.6892,2.8922
Tb2PrTm,19.9103,22.7985,2.8881
SnSbW2,29.7613,33.1817,3.4204
Pr2Ga2Au3,18.719,19.7642,1.0452
K3Na6Pb,22.1046,19.4239,-2.6807
K3GaSn,13.4484,12.6858,-0.7626
Si3NiS,21.8722,15.2471,-6.6251
Cs2BAuF6,13.0546,13.7264,0.6718
Y5ThIn3,17.4611,18.8076,1.3465
ScTi3S,24.3718,22.6413,-1.7305
FeTc2Te,57.2537,49.3961,-7.8576
K(GaSn)2,10.9273,12.5396,1.6123
LiAlSb3,30.3162,24.8751,-5.441
Y2UIn9,24.247,23.8874,-0.3596
TbHgPb3,33.5602,35.9879,2.4276
TaCuO3,0.3228,3.4811,3.1583
AlCd2Mo,16.2593,16.0752,-0.1842
Tc2PtBr,72.9869,58.828,-14.1589
TcPt2Br,71.8989,56.5471,-15.3518
AlCdMo,19.3454,17.1801,-2.1653
TiRuO4,6.5812,6.3945,-0.1867
Tb2ScCrS6,36.2757,29.2377,-7.038
La2YRhPb,43.266,35.2437,-8.0223
AlCdMo2,17.6901,15.3468,-2.3434
LaYPbAu,40.7189,39.5534,-1.1656
ScNbMo2,53.2339,46.9573,-6.2766
LaY2BPb,63.2624,54.0282,-9.2342
CrRuPb,26.5155,22.1356,-4.3799
Na(TcC)2,59.8161,46.3118,-13.5043
SmUTl2O8,15.2793,17.7637,2.4844
LaYPb2,42.1702,40.5283,-1.6419
CeY2(MoN2)3,30.3832,27.2356,-3.1476
Li2AlRh2,17.7369,13.0192,-4.7177
Rb2BaMnCl6,6.7811,6.3559,-0.4252
Tl2InPt,52.798,48.2467,-4.5513
ZrAlPt,62.6878,50.8009,-11.8868
LiAlRh4,35.1943,25.2391,-9.9552
SrNd2IO8,11.6713,11.5321,-0.1392
P2RhAu,25.7741,23.6205,-2.1537
NbSn2PbSe,57.3201,49.5818,-7.7383
PRhAu2,37.0858,34.8339,-2.2519
P2RhAu,26.0508,23.6205,-2.4304
Tb(YCd3)2,18.4929,19.5958,1.1028
YPd2Pb,33.5905,32.5491,-1.0414
Zr2AlPt,65.4118,54.8742,-10.5376
PaTiO4,0.079,6.1574,6.0784
Na(TaC)2,36.8199,32.0277,-4.7922
Ac2YSn4Pd3,47.2723,42.2522,-5.0202
ScV,41.1789,29.8445,-11.3345
CaEu2Ni,20.1741,19.2201,-0.954
CoHg2S,13.7302,11.5434,-2.1868
Hg2Pb2S,30.0912,27.8317,-2.2595
TbPm2YIn4,17.4568,18.0907,0.6339
YTm2Ru9,19.7398,20.7396,0.9998
ScCrSiS2,42.3456,31.8585,-10.4871
Nd2YEr9,27.3101,28.6987,1.3886
ThCoAu,28.626,35.1187,6.4927
ThCoAu,40.9255,35.1187,-5.8068
ScCr2S,22.0746,19.6989,-2.3757
V(HRh)3,33.5711,23.3117,-10.2594
NaPmYTl,28.4259,29.3659,0.94
Te3Rh2Pb,40.8625,36.9136,-3.9489
CoTe2Rh,34.7645,31.2951,-3.4694
Cd2OsW,94.1843,77.833,-16.3513
Ho3TePt,36.7322,34.619,-2.1132
Li2Si2O,19.1115,15.4066,-3.705
K2MnSnS4,41.0084,31.0622,-9.9463
K2SmMnS4,40.4568,31.3763,-9.0804
PmY2TlO,34.7466,32.9699,-1.7767
CoTe2Rh,35.0838,31.2951,-3.7886
Ti3GaCu,1.3632,4.3897,3.0265
U3SnO8,32.466,30.0044,-2.4616
Te3RhPb,46.8505,41.6974,-5.1531
GdGa4Ru,6.9368,9.4659,2.5291
Zr2USn,71.5605,66.1499,-5.4106
PmY2(TlSe2)3,39.7941,35.8816,-3.9125
Cd2GaAg2,15.5977,14.9691,-0.6287
UMnCoSn,49.5418,46.5362,-3.0056
NaGdAgPb,34.2082,32.7852,-1.423
USn2Hg,27.3861,29.251,1.8649
Rb2MnCuCl5,9.5627,7.2931,-2.2696
PmY3Tl2S,36.0672,35.313,-0.7542
Ni3PI,20.1623,17.2998,-2.8625
USnIr2,43.7792,47.7083,3.9291
USn2Au,39.1953,41.264,2.0687
PmY3Tl,17.8817,21.2375,3.3558
U2InSn,44.5739,46.9706,2.3967
ZrRuO2,34.5343,30.4104,-4.1239
Y3ErRu3,24.5297,19.9205,-4.6092
UTiSn2,37.6344,34.0104,-3.6241
CaPrRu4,20.0507,21.3738,1.3232
Sn2(BiPb)3,41.6885,45.0409,3.3524
In2GaAg2,22.1982,20.2083,-1.99
Pr12Al2In5,3.8055,3.4223,-0.3832
Sr3HfTi,39.9557,30.9211,-9.0346
MoAsRhBr2,20.3573,17.7709,-2.5864
CaBe3Sn,16.9585,11.8538,-5.1047
YThPt2,63.6492,53.3261,-10.3231
Eu3(Cu2Ge)2,17.006,16.1388,-0.8672
SrPPd3,0.0,3.4159,3.4159
TmPuO4,4.9772,9.6532,4.676
Y8Si3GeSe4,32.9088,27.7347,-5.1741
Tm3TePt,38.2196,36.1012,-2.1184
Tb3(PmCd)2,23.8596,26.278,2.4184
LiTlP2S,28.8885,27.5806,-1.3079
GaCu3C,21.0,15.9722,-5.0278
Sc2Cd2Si,22.127,20.8145,-1.3125
GaAgAu,28.9124,27.7444,-1.168
CaCoRh2,30.8809,23.2573,-7.6236
ScAgSb2,32.9859,27.4289,-5.557
CoRhI3,25.7794,22.7948,-2.9846
GaAg6Au,30.5197,26.3548,-4.1649
Y6Ge2NF,25.0817,22.8435,-2.2381
Gd2InTc,42.7306,40.3508,-2.3799
AcSmYTh,42.4043,45.4609,3.0565
CaAl4Pb,11.7342,13.1755,1.4413
Pm8P3CS4,30.0239,29.0655,-0.9584
NdYZnIr,25.9038,25.0449,-0.8589
UMn6,66.7905,53.421,-13.3695
HfTi3Co,64.6455,49.3956,-15.2499
Pr2(YSe2)3,27.8748,23.576,-4.2988
Pr2Sn3Rh5,22.8059,17.7331,-5.0728
BeCd3Si,24.0704,21.1707,-2.8997
Re2SiPb,29.9821,32.67,2.6879
K3Cr11S18,35.3024,26.044,-9.2584
KCdF3,0.0,0.573,0.573
PrNdY2Th,17.9743,20.0759,2.1016
Be2CdSi,20.8874,17.2391,-3.6483
LiPmYAl,25.481,22.2773,-3.2037
K3Tc5N12,3.1857,0.9322,-2.2535
Be2CdSi,20.7432,17.2391,-3.504
Pm2TcI,41.0876,38.8513,-2.2363
Sr2AgMo,15.9301,16.5398,0.6096
LiTh2Ru,37.0707,41.0942,4.0234
ScBe2Si,23.0029,19.7454,-3.2576
CaYNb3,94.3929,73.7655,-20.6274
BeP5,4.1489,5.3228,1.1739
BeCdSi2,23.5748,18.7151,-4.8597
Sr3AgMo,18.2059,17.4722,-0.7337
CaMg2W,12.7826,12.5374,-0.2452
SrAgMo3,21.0944,20.7348,-0.3596
ScCuRhPb,43.7255,36.9745,-6.751
NaLaPb2,45.0085,41.8191,-3.1894
SrAg2Mo,23.5131,21.5099,-2.0032
AgMoPt2,56.3793,45.1047,-11.2746
BeCdSi2,23.5253,18.7151,-4.8102
ScBeSi2,36.5261,29.632,-6.8941
Ag2MoPt,41.9123,33.8727,-8.0396
BeCd2Si,24.7448,21.6952,-3.0497
BeCd2Si,24.7535,21.6952,-3.0584
Pr2GaBr2,6.5184,6.7143,0.1959
NaAlZnAu3,26.4582,27.8094,1.3512
Mn2VNi,101.5078,84.6625,-16.8453
CaBeP,21.4202,18.591,-2.8292
TmHfSe3,43.4831,32.7223,-10.7609
CsNaZn,18.9809,17.8656,-1.1154
Hg2BiS,27.8499,24.6412,-3.2087
TiNbRu2,44.2482,40.7248,-3.5234
SrAgMo,20.8399,20.3587,-0.4812
CeNi3,6.5148,7.243,0.7282
CsBi3Rh,47.5397,45.0554,-2.4844
SrCr2As,9.6353,6.8984,-2.7369
CaBe2P,17.1594,14.529,-2.6304
Lu2TlPb,42.3665,44.6983,2.3318
NaNdBiSb,36.701,35.5287,-1.1723
Ta6Al8O27F,5.8524,6.519,0.6666
Pr3AlIn,0.0,0.0,0.0
Al3In3Au2,20.3613,21.4589,1.0976
Sm2GaBr2,15.0555,16.9854,1.9298
Ca(GdI4)2,21.2509,21.9744,0.7235
AlPb2Se,39.1627,37.5699,-1.5928
Sm2YPb,28.854,31.3763,2.5223
Sb4Pd2Rh,38.4439,32.2326,-6.2114
AlIn2Au,22.5222,25.0449,2.5227
SrTl12Hg7,30.9992,31.3808,0.3817
Na2Si2Sn,18.6209,14.1998,-4.4211
NaTmSnIr,29.4558,31.4671,2.0113
AlInAu2,29.2666,32.1505,2.8839
Pr3(YTl)2,17.5195,18.4166,0.8971
Al2In2Au,15.7678,17.8411,2.0734
ThSc5Al4,11.1873,12.8654,1.6782
Mg4(BiO2)9,15.3095,16.4084,1.099
SbPdRh2,40.4879,32.1467,-8.3412
SbPdRh3,43.6967,33.1937,-10.503
Sb2PdRh,39.7962,33.6932,-6.103
YAs2Pd7,18.738,18.9262,0.1882
Al2GeI,18.8413,15.168,-3.6732
Pr4Y3Tm4,14.3525,15.5052,1.1527
LiBe2P,6.7839,6.394,-0.39
DyMgBi,27.9402,30.1491,2.2089
LaPm(ScHg2)2,11.3728,10.0733,-1.2995
LiBe2P,6.5019,6.394,-0.108
Pa2GaGe2,31.964,34.5321,2.568
Cs2Th(AuSe2)2,43.5862,40.0174,-3.5688
BeC,26.0343,11.8264,-14.2079
LiBeP2,7.8536,7.1271,-0.7265
Zr2CrBr,68.0668,57.9082,-10.1586
SrZrBr2,35.0576,30.9845,-4.0731
Tb2ErScBi5,40.1152,41.3421,1.2269
NaSrFeNi2,32.8157,24.3791,-8.4366
Ni8Ge,8.427,9.2456,0.8187
Zn2SbRu,15.8513,17.5498,1.6985
TbY2Al,29.3093,26.0987,-3.2106
BaPI,9.9023,8.4655,-1.4368
BPbW3,34.4012,37.865,3.4637
Cs2YPI6,24.9895,23.3217,-1.6679
YTi2CoN,66.556,54.6206,-11.9354
Sn3Hg12S5,12.0602,8.7571,-3.3031
BeC,16.5316,11.8264,-4.7053
CdSb2Te,37.9439,33.9226,-4.0214
TbY2AlO,37.6703,31.4887,-6.1817
CeYMnAl,50.4292,41.9209,-8.5083
TaSb2As,34.0982,32.4726,-1.6256
TlCdSb2,40.0263,36.9528,-3.0735
AcYO4,23.5938,22.7327,-0.8611
TbYBeAl,26.8295,23.245,-3.5845
ZrFe2Ru,38.3205,31.0182,-7.3023
Li3FePb,24.8464,22.3987,-2.4477
CoReTe2,32.7476,32.7369,-0.0107
Pm2DyPd,23.5,25.7971,2.2971
Ag3IrI,33.0656,29.3021,-3.7635
K2(TcS2)3,39.27,28.5978,-10.6722
Mg3(Zn2Bi)2,17.3201,17.5113,0.1913
Cs3Rb(CuBr3)2,14.0273,13.4085,-0.6188
Li2FePb,30.4702,27.8154,-2.6548
Hf3MnNi,128.4661,96.3391,-32.1271
AgPI,18.5513,15.5698,-2.9814
Y2NiOs3,63.1068,59.571,-3.5358
NbCu2Sn,61.756,53.1303,-8.6257
TmSbRu,9.8116,15.144,5.3324
LiAgMo,16.9005,15.8967,-1.0037
LiCaLa4,35.7291,26.303,-9.4262
CsRb2ErCl6,2.1921,4.2764,2.0843
CsRb2TmCl6,2.3299,4.4098,2.0799
AgHgMo2,15.8891,16.5079,0.6187
Ca4Co2I,12.0085,11.0065,-1.002
CaZrBe2,35.6558,29.1912,-6.4646
BaTe2I,27.0555,26.1622,-0.8933
Ca2YPd5,17.8035,17.4751,-0.3283
Y3BiC,31.2258,32.1055,0.8797
HoCo4Ir,15.9179,18.933,3.0151
Ca2MgCu2,7.6661,5.692,-1.9741
Rb2LaYBr6,12.2723,10.9726,-1.2998
BaTe2I,26.3774,26.1622,-0.2152
Sr2Tc2Br,42.0669,35.7668,-6.3002
Pr2YTl,10.3278,12.194,1.8663
Li3MnRu,24.6127,20.959,-3.6537
BaAlTe2I,29.6942,25.0812,-4.613
Sr3TaAs,28.276,21.6756,-6.6004
TaPdO2,27.8184,27.2859,-0.5326
SrMgBiH2,12.788,14.0542,1.2662
KYSc2,5.6852,8.0461,2.3609
Ti3CoRh,45.6828,36.1597,-9.5231
Li4MnRu,19.914,17.694,-2.2199
Li(HPd2)3,10.9554,11.9115,0.956
Pu3TcSb,58.9856,55.7777,-3.2079
AsW2O,23.9737,24.0161,0.0424
Hf7Bi,132.5933,94.2594,-38.3339
TaPO,15.2812,14.699,-0.5821
Tc(RhPb)2,53.7732,46.6798,-7.0935
CaEuPb2,34.1949,36.0138,1.819
SrEuCl,25.4322,24.7474,-0.6847
EuPaCl2,24.9882,26.6709,1.6827
Sr3SnRu,15.6217,16.6924,1.0706
NdYAlRu,29.3253,26.8941,-2.4311
Na2NbC2,63.1485,48.0814,-15.0671
CaPr2Y5,6.1747,5.9252,-0.2496
PaZnO4,12.9795,13.1851,0.2056
PrY7Er3,16.9175,18.5141,1.5967
YCuC,24.6358,17.2807,-7.3551
PrTm3Ni8,13.4364,14.7739,1.3376
Sb2PtRh,51.4669,40.76,-10.7069
CaFeCu2,25.4208,19.9903,-5.4305
Sr2TaBr,28.8013,23.2219,-5.5795
YCrAg2,37.2278,29.4445,-7.7833
YHf3Au,100.1004,73.7788,-26.3216
TaCuBr2,19.8464,20.8998,1.0534
Sc2Fe2Br,30.6691,29.4523,-1.2168
LiLa3Sb,40.0147,30.2685,-9.7461
Ga2TcSe,35.5221,30.5108,-5.0112
CaMnPH2,32.1262,25.9955,-6.1307
NaPrSmOs,27.0399,26.2767,-0.7632
Pr2PuBi4,39.6293,41.3688,1.7396
Cr2Fe2W,19.8256,18.2825,-1.5431
GdAgAs2,12.1107,13.5993,1.4885
Th7In,60.2313,61.8184,1.5871
Ge2P2Au,10.5484,11.9946,1.4462
Cs8Au4F,29.6214,30.0934,0.472
TaTcIr3,41.6421,44.6592,3.0171
Zn2NiIr,20.0568,18.5692,-1.4876
Fe2NiAu2,32.7043,29.4555,-3.2487
La2YGe3Pt4,50.2334,37.1236,-13.1098
InSe2,38.9276,32.5802,-6.3474
Ga(BiPb)2,33.8371,36.105,2.2679
Y2GaGe4Pt3,35.2328,26.8631,-8.3698
Y2CuGe3Pt4,47.2858,35.0041,-12.2817
IrW2I,36.8427,40.1384,3.2956
In3Se,26.7911,25.0971,-1.694
Zr3Mn4,98.9819,81.895,-17.0869
CaIn2Se,40.4115,35.759,-4.6525
ZrPaO4,15.2038,16.8842,1.6804
Ca2InSe,39.4933,30.8952,-8.5981
Ca2MgSn,7.9144,9.7452,1.8308
ReGe2Ir,33.0648,32.0146,-1.0503
TaCu(PbO3)2,15.9395,16.4037,0.4642
Y4ErSe5,30.8346,26.8975,-3.9371
Ca(SbPt)2,50.4612,37.7423,-12.7189
Ga2Si2Ru,10.035,7.609,-2.426
NiP2RhS,27.9314,25.4919,-2.4395
Rb2GaPt2,37.9217,28.1882,-9.7335
LaYNiOs,64.801,58.0207,-6.7803
ThMnCl,48.5701,46.073,-2.4971
Zr3P2,51.4552,45.4656,-5.9896
Rb3HoAl3B12S12Cl,16.4647,11.5517,-4.913
Rb3TmAl3B12S12I,17.4682,12.271,-5.1973
K3ScGa3B12S12Cl,21.1918,14.4527,-6.7391
NaZn,14.3853,12.9343,-1.451
Pr32In3Rh19,14.9552,9.8809,-5.0743
CaYbIn,12.2159,15.6494,3.4335
KOs2Ru,28.9031,31.74,2.8368
Th4ZrNi10(B2C)5,31.0816,28.1376,-2.944
LiCo2W,14.5228,16.3853,1.8626
TaBeTe2,33.7154,32.7736,-0.9418
BaCrTc,40.4245,34.2175,-6.207
Mn3Tl,80.5919,66.8728,-13.7191
Cs(GaGe)3,7.4629,8.8253,1.3625
AcUTe3,32.6612,36.0321,3.3709
Ti2Sn2Bi,29.631,23.1938,-6.4371
Ca2ScRe,35.9371,29.4372,-6.4999
Cs3NaNi,21.5028,20.8945,-0.6084
CsNa2Ni,20.5276,19.0015,-1.5262
Ta2CdTe,34.1265,35.8581,1.7316
V6NiAs2,92.7542,70.9036,-21.8506
MnGeCl2,24.5143,21.6017,-2.9126
PaGaFe,22.2648,24.2509,1.9861
K2CaRh,19.6589,16.3489,-3.3099
SrTmAg2,26.4051,24.5038,-1.9012
ScRe6,48.7613,46.5567,-2.2046
CaScRe2,44.8574,38.5294,-6.328
MnAu4Cl,48.9937,46.753,-2.2407
CeHfNi4,39.1923,30.0669,-9.1255
Al2Mo2Rh,17.5101,13.9539,-3.5562
KAg2Br,21.2094,18.0228,-3.1865
AlInSe3,12.3364,25.7015,13.3651
Rb3HfBe,31.6016,21.7019,-9.8996
Rb2SbAuCl6,10.9833,10.2582,-0.7252
NaLiYAu,21.3275,21.6999,0.3724
AlIrRh2,35.7563,31.1669,-4.5895
Rb2TcICl6,13.4255,11.8759,-1.5496
Rb2TcAgCl6,10.5121,8.1984,-2.3137
KCrAuS2,30.7711,24.3882,-6.3828
LiAcSmBi,35.8441,38.5101,2.666
Ca2Ag2Sb,24.4331,20.2131,-4.22
MnAlSe2,49.3616,40.1361,-9.2255
Li2HfCu,38.2294,28.6032,-9.6262
Ti(NiRh)2,19.0252,15.3455,-3.6798
AlSeBr,20.348,19.4005,-0.9475