Formula,E_hull_DFT (eV/atom),E_hull_ML (eV/atom),Delta (ML - DFT)
Y3Te4,28.6256,28.005,-0.6206
YRe2W,43.1236,38.7276,-4.3959
BaSb(TeS3)2,46.5863,35.4917,-11.0946
RbIn2GeS6,35.2629,26.0146,-9.2482
Tc2As2P,41.9459,35.35,-6.5959
Na2YThTe4,36.001,35.0944,-0.9066
Pm2SmYSe4,33.3518,30.4392,-2.9126
NiBiSb2,42.834,36.4603,-6.3737
SiNi2Sb,22.8483,17.4602,-5.3882
Th2Si3PdPt12,70.1247,50.9338,-19.1909
Y2Mn2Re,44.8565,38.3048,-6.5517
YMnRe2,48.7921,47.4258,-1.3663
FeCo,1.471,1.9623,0.4914
Ce2PaPdS6,46.341,37.5668,-8.7742
Zr2CuPt,72.9238,58.473,-14.4509
SmAgRhAu,37.6947,33.4671,-4.2276
Ac(HoIn3)2,26.319,28.1306,1.8116
NaTbBi2,39.6211,40.1974,0.5764
B3WN3,0.0,1.6126,1.6126
Sm3(AgAu3)2,37.8446,37.7529,-0.0917
Zr2MoAs,55.3732,48.8577,-6.5155
NpV4Sb,105.2964,85.1443,-20.1521
Ca2PtW,34.907,29.7381,-5.1689
Sm4AgAu3,33.4757,34.2537,0.778
NdU(TlS3)2,47.072,39.9492,-7.1228
TiBiPd2Ru,22.801,24.5171,1.7161
La(TbIn3)2,24.4441,24.1969,-0.2472
Hg(Sb3Rh)4,42.8334,32.0864,-10.747
LiMgCdBi,18.9697,20.2647,1.295
KTlRu2,25.0946,26.3483,1.2537
Tb2PrSm2Mg,13.2686,16.5743,3.3057
Ti3RuSe6,31.0795,26.3807,-4.6988
V2CuSi2,52.4196,40.677,-11.7426
CaYCu2,23.0861,17.217,-5.8691
Ac(PrIn3)2,18.8805,20.6441,1.7636
RbAlGe,14.9965,12.2583,-2.7382
Na3InCo,20.9084,17.9881,-2.9202
CaY3Pb,24.0185,22.4923,-1.5262
PmPa(PbS3)2,52.5595,44.678,-7.8815
CrRe2Sn,19.4447,24.4605,5.0159
Cr2ReSn,12.3568,16.1274,3.7705
Hf5AgBi3,101.4954,77.9373,-23.5582
Cs2NaMoBr6,14.5297,15.3886,0.8589
Tl3MoAs,36.7138,37.2114,0.4977
CeU2CrN5,12.0054,14.955,2.9495
Ca4YPb15,41.8151,41.9513,0.1362
TaBi3Ir,50.105,51.1908,1.0858
Ac2U3CuPt12,78.0807,60.6472,-17.4336
TaBiIr,45.0634,49.0917,4.0283
Rb2SmUS6,36.8916,30.071,-6.8205
TlInTc2,64.8293,57.4125,-7.4168
Tl2InTc,54.366,50.877,-3.4891
YReC3,63.5894,48.3505,-15.2389
Cu2RuAu,20.1184,21.7844,1.666
U2InAu6,48.8431,49.9895,1.1464
Sr3TlGe,20.5247,21.3745,0.8498
Cu3RuAu,18.6397,19.3659,0.7262
Ba2PtF,22.9824,17.3561,-5.6263
CePrAgOs,23.2543,24.1785,0.9242
BaPm2RhO5,1.8543,3.4482,1.5939
FeTcP2,40.697,35.5761,-5.1209
Ca2TeRhBr,21.8003,19.0944,-2.7059
Er6Tm2In,24.2651,27.3499,3.0848
Y(MnAu)2,61.5371,52.9809,-8.5562
K3SiRu,17.3932,13.3528,-4.0405
TbNd(ErTm)2,24.538,28.4542,3.9162
Ba2HfScS6,44.7967,32.423,-12.3737
Np(CoP)2,29.2311,24.4199,-4.8112
ZrTlMo3,40.9077,38.638,-2.2698
Ac2InSi3Au4,37.6794,36.7338,-0.9456
Ac2Si2SbAu6,43.949,42.5295,-1.4196
AlBiBr2,20.0139,21.1721,1.1582
TlMo,3.8987,12.4518,8.5531
AcYMgAu,32.7185,34.0529,1.3344
BiP2Ru,13.5798,17.3671,3.7872
HfBi2Rh,75.6008,62.653,-12.9478
CsLiPS2,32.8454,25.9137,-6.9317
Pm8Co3CBr3,24.9744,21.6093,-3.3651
Pr12Sm6Ho,6.4899,7.6421,1.1522
TbPmNd3Ho,20.9278,23.9751,3.0473
Nd4PS2N,33.2836,29.3594,-3.9243
ZrTl,58.1586,55.4389,-2.7198
ZrTl3,58.9521,57.6953,-1.2568
CsAc2PbO4,17.8394,20.2223,2.3829
Sr2TiAgO5,1.0805,2.3631,1.2825
ThTi(SiPt)2,45.5947,35.7797,-9.815
Mg5Ru4,9.6861,11.2843,1.5982
Ba2YIn,33.1365,28.7524,-4.3841
MgZrTl,50.8176,46.2162,-4.6014
NaTiPS2,35.578,29.6779,-5.9001
MgTlMo2,21.939,24.2666,2.3276
NaScPS2,47.343,34.6638,-12.6791
Zr2Mo3,38.93,37.1029,-1.827
ZrMo2O,38.3735,36.0271,-2.3464
Zr2Tl3,65.0022,60.7646,-4.2376
Ni2OsSe6,38.0002,32.4531,-5.5471
Na2TbFeO4,14.5554,14.7788,0.2233
SmY5HoEr2,14.8192,17.3659,2.5467
Zr2Mo,70.8108,61.6677,-9.1431
Ac2SiSn3Au4,39.8447,39.4386,-0.4061
Zr(MoO4)2,22.7102,19.1146,-3.5957
KHfTc2,86.564,67.1092,-19.4547
Th2BeSi3Ir4,38.4155,37.8959,-0.5196
Zr4Tl5,72.0452,64.55,-7.4953
KSi2S,25.525,18.1649,-7.3602
BaPr2RhO5,2.078,0.0,-2.078
AcTaTlO5,10.1231,12.7103,2.5872
Zr2Mo,61.3811,61.6677,0.2866
BiRu3Br,28.8191,27.6224,-1.1967
Y4Ho2N,31.5968,30.5011,-1.0957
ZrAu4Br,49.8822,48.3086,-1.5737
NaSbRu,23.5513,21.952,-1.5993
ZrMo,37.487,42.4501,4.9631
YEr5Tm2Th,27.2671,29.8929,2.6258
BiRuBr2,28.5603,28.088,-0.4723
NiHPd,8.0948,10.6074,2.5126
Zr2Tl,76.0146,68.0407,-7.9739
ZrTaSe2Br,49.0206,41.6713,-7.3493
YHoSeN,48.606,43.9552,-4.6508
TlMo2,20.4061,26.8098,6.4037
TlMo2,20.0792,26.8098,6.7306
SrCrS2,35.5867,25.6586,-9.928
RuBr2,20.0962,17.9386,-2.1575
Ac2Si2Au,35.3707,36.099,0.7283
YHoZr2N4,42.2802,37.2835,-4.9967
ZrTl2,62.4139,60.3972,-2.0167
NaSrUO4,13.0161,15.351,2.3349
Pm2Er6Tl,30.7305,32.6883,1.9578
Ac2Si3Pd4Au,28.8028,27.7745,-1.0283
ZrTlMo2,45.1278,44.0166,-1.1112
Ca2NdIn,10.3647,12.6011,2.2365
BiRuBr3,25.814,23.6333,-2.1807
SrScRh2,28.624,22.7862,-5.8378
Nd3ErGe2C,25.4823,24.3206,-1.1617
MgTl2,32.6432,35.1635,2.5203
ZrTlMo2,45.4353,44.0166,-1.4187
ScAlIn3,16.9178,15.1046,-1.8132
Ac8Bi4Te3As,53.181,54.3649,1.1838
Ta2CuSe,33.0964,34.8973,1.8009
RbPS2,36.5484,27.4818,-9.0666
Th2Be3Si4Au,36.5589,32.1572,-4.4017
Y2CoNi2,71.0149,59.0444,-11.9705
NpGe2Rh,34.1415,33.0432,-1.0983
NaPS2Br,32.0884,27.4759,-4.6125
BaCd2RhO5,9.6568,8.6937,-0.9631
Ac2Be(Ni4B)3,11.31,13.9199,2.6099
ZrMoO2,42.6319,37.2628,-5.3691
Zr4Tl,89.7031,75.814,-13.8891
Tb3PrHoTm,18.1115,20.7854,2.6739
Ac2B3Rh12Pb,52.0874,43.211,-8.8765
Sr3MnGe,30.2893,25.8497,-4.4396
SrCrP3,27.4205,22.5615,-4.859
Ac2Si3GeAu4,36.6049,35.5923,-1.0126
Na6Al,22.1298,17.4575,-4.6723
NaSmSnHg,17.0844,17.2287,0.1443
Hf2BiRh,97.655,74.0227,-23.6323
NaAl,12.9601,11.2513,-1.7088
ZrTl2Mo,54.1919,51.6062,-2.5857
NaAlSi,24.1113,19.8057,-4.3055
PrDy2(FeSi)6,12.8821,10.1582,-2.7239
SmNpTc4,77.8329,68.3626,-9.4703
Ac2Cu4Si3Au,25.5746,24.5296,-1.0449
SrMgCu,11.4949,9.3241,-2.1707
NaAl,11.5476,11.2513,-0.2963
ZrTl,69.1179,55.4389,-13.679
Y(CoNi)2,50.5069,41.2972,-9.2097
Pr7Y3Ho2,7.2498,7.9154,0.6656
TiNb4Ir5,78.2973,71.657,-6.6403
SrAcSiAu,45.4743,40.6399,-4.8344
YCo2Ni,50.994,44.5237,-6.4703
LiY2Co,28.0039,24.0248,-3.9791
Tb4BSeS2,32.0752,28.2149,-3.8603
TaTcSe2Br,48.1658,40.8549,-7.3109
Na(AlSi)2,28.2396,21.6564,-6.5832
Ac2Zn4SiAu3,31.3954,31.743,0.3476
BaPr3Pt,14.7271,10.3584,-4.3688
NaGaSeO4,20.6866,17.5631,-3.1235
Pr5YHo4,12.1193,12.7271,0.6078
Zr(MoO4)2,22.816,19.1146,-3.7015
AcIn(SiAu3)2,39.667,39.5167,-0.1503
PuSb2As,42.6938,38.6125,-4.0813
MoPd,0.0,2.6562,2.6562
NaP2PtS,36.5604,29.7954,-6.7651
YMn2Co,67.0241,51.66,-15.3641
K2Zn2Bi,16.8854,17.5143,0.6289
Na2ErGaO4,17.5824,16.2451,-1.3373
Ac3(Si2Au)2,37.86,36.0464,-1.8136
BaReTe2,37.1237,32.8553,-4.2684
MnAlPb2,52.3675,47.5141,-4.8534
Pr3CoI3,3.1049,5.4413,2.3364
TePb,43.2996,44.4301,1.1305
CrCu2Pb,21.5531,20.1311,-1.422
Tb6Ni2Ir,17.765,21.5476,3.7826
Tb6Ni2Os,17.6211,21.4178,3.7968
Tb6Ni2Pt,23.042,23.3381,0.2961
CrCuPb2,32.0193,31.6697,-0.3496
Ag(SnAs)2,15.031,14.5384,-0.4926
Dy3CoSn3,15.5611,19.6324,4.0713
Nd3CoNi3,18.7103,18.5204,-0.1899
Ca2NdDy,15.572,18.2133,2.6413
Co(NiPt)3,46.6241,33.149,-13.4752
Dy6TcNi2,24.0319,25.6463,1.6144
CuSi2Pb,23.8289,20.9158,-2.9131
VZn,68.1975,55.2067,-12.9907
LiAgP2,14.9853,10.3016,-4.6837
Pm(ZnSb)2,21.9978,20.0633,-1.9345
AcSi2Au3,34.2312,33.8978,-0.3334
Er6Ni2Te,20.0593,22.4477,2.3885
Ho6Ni2Te,19.3562,21.7552,2.399
BeTeAs3,17.9486,15.5441,-2.4045
Th2Al4Ni3Ir,19.9462,22.3782,2.4319
Cd4Hg3,10.8543,11.3669,0.5126
Cr3Ir3Os,21.0744,23.1118,2.0374
PmCd2Sb,26.5065,25.4689,-1.0377
Er(H3Ir)4,11.9537,13.1971,1.2434
InSbAs2,21.4924,21.1208,-0.3716
Y2CoNi2,77.387,59.0444,-18.3425
YCoNi2,63.308,51.5792,-11.7288
SrMo,5.9711,7.9569,1.9858
ScCoSi2,26.7583,22.1375,-4.6208
LiAgP2,15.1463,10.3016,-4.8447
Ca2PmPd,1.1463,5.3241,4.1779
Ca3Sm3ScTe8,28.2625,27.3461,-0.9164
ThAl3Ni2,8.3675,12.6001,4.2326
Y2CoNi,74.1937,63.0615,-11.1323
KCdCl2,8.9146,9.5513,0.6366
Ba2NaTlO,14.2484,14.0701,-0.1783
Tb4PrNd,21.3178,23.1659,1.8481
Pr2Y6Ho3Pu,19.7662,21.026,1.2599
CeMn2,74.7974,60.2424,-14.5549
Y2CoNi,68.3119,63.0615,-5.2504
Cs(YbH4)3,8.0631,9.1549,1.0918
YCoNi2,63.3477,51.5792,-11.7685
CsGa2SnI8,19.883,20.1702,0.2872
YCoNi,65.9764,56.5658,-9.4107
CdHg3Br,5.9058,6.4997,0.5939
CaAcLuAl,26.6458,29.0265,2.3807
CaTaCd,21.6064,23.5833,1.9769
YCo2Ni5,44.0445,35.3664,-8.6781
LaPrYHo3,20.0114,19.8601,-0.1512
GdThRu,36.9387,40.5289,3.5903
Na3Tl(NO3)4,6.1594,6.236,0.0766
AcSiAu,41.7572,41.4553,-0.3019
Sr3CrAs3,4.1848,2.0413,-2.1435
Ce3Mn,43.7351,39.5252,-4.2099
LiAsP2,18.5109,13.6895,-4.8214
Sr3Mn,35.395,29.9207,-5.4743
SrMn2,71.3999,55.7988,-15.6011
GaSnPt2,46.2302,35.2253,-11.0048
SrMn3,71.4241,55.584,-15.8401
CoPtPb,47.3011,38.586,-8.7151
GdY3Cu,25.9494,23.3578,-2.5916
CoBiPt,44.9419,39.3316,-5.6103
SrLa5,45.392,32.6262,-12.7659
Pr6Y2Ho3In,10.5371,10.6043,0.0672
Tl2CuSe,39.301,37.7606,-1.5404
SrCr,0.0,1.0793,1.0793
Dy3Np5S8,53.8239,47.4853,-6.3386
Y2Co3Ni,51.4638,44.8452,-6.6186
Ga2PdF,11.4844,11.0906,-0.3938
LaIr2,31.8146,31.941,0.1264
SrLaMn,55.9194,42.6201,-13.2993
AcCe2(SiAu)2,33.455,33.4481,-0.0069
SmSiPd2,12.2457,13.9275,1.6819
SrLaMn,55.3434,42.6201,-12.7233
NaHfTl2O6,26.1056,23.1068,-2.9988
CsMoO2F3,10.3058,11.4947,1.1889
Tb2Nd2Tm2Mg,23.8535,25.9714,2.1179
NaVBr2F,35.9312,29.2291,-6.7022
SrCr5,11.3991,9.9344,-1.4647
GaBi2Pd,36.694,37.4602,0.7662
SrCr,11.1828,1.0793,-10.1035
BaSnSb2,27.3417,23.6307,-3.711
KTaBr2,14.0878,15.5868,1.499
LaCe3Mn,45.3076,38.2218,-7.0859
CeCr3,13.5437,13.5641,0.0204
Ac3Si2Pd9Au,28.1936,28.2793,0.0857
LaCe3,31.6707,29.2448,-2.4258
Y(CoNi2)2,49.2808,39.2766,-10.0041
SrCa2Tl,20.2454,19.8958,-0.3495
KP3Rh,14.7302,11.9511,-2.779
YSbAs2,19.1977,18.5073,-0.6904
LiP2Au,18.836,16.6004,-2.2357
CaTi2VFe,41.8574,33.8837,-7.9737
Y2Co2Mo,34.2802,28.0184,-6.2618
BaGdY,47.5083,41.6694,-5.839
NaPaTl2O4,22.6241,24.1187,1.4947
BeFeP,5.6292,5.9709,0.3418
Mn2BeFe,52.3491,39.5254,-12.8237
Mn(BeP)2,22.2283,17.8,-4.4283
K2IrOs,28.489,29.5446,1.0556
TlCo,0.0,7.3763,7.3763
BeFe,0.0,0.0,0.0
CsCoPO4,0.0,0.0,0.0
Y2Co5Ni12,41.8054,32.8424,-8.963
Mn2BeP,51.1344,40.2247,-10.9097
Sb2RhCl,35.8334,27.7465,-8.0868
PrYHoEr2,15.6105,17.9891,2.3786
BeFeP,5.1527,5.9709,0.8182
TlCo2,17.01,21.519,4.509
NaCa2W,16.5427,17.197,0.6543
Tl2CuCl4,17.5716,17.849,0.2774
Mn2BeFe,58.8888,39.5254,-19.3634
Ac2Ga3Cu4Pt,28.5972,25.1049,-3.4922
CuTcPt2,69.7341,52.6744,-17.0597
BeFe,11.8789,0.0,-11.8789
Ac2SiGe4Au3,31.7766,32.2505,0.4738
ScReRh2,57.5569,43.1524,-14.4044
MnBe2Fe,36.9169,27.782,-9.1348
MnBeP,35.1288,27.8125,-7.3163
CuReTc,46.6814,45.0806,-1.6008
KP2Rh,16.6501,14.0046,-2.6455
Np(Ni3Au)2,22.6928,24.5411,1.8483
PrYHo2Tm,15.6816,19.2495,3.5679
ZrCuSe,51.095,44.1075,-6.9875
EuFeSi,16.4208,15.359,-1.0618
Ce(CdNi3)2,18.6225,16.0656,-2.557
Ce8Os3PtBr4,28.4495,27.6135,-0.8359
CsBi2Br,36.5178,37.3567,0.8389
CrFe2Ni7,27.6051,22.1531,-5.4519
ReMoBr,27.5197,26.3996,-1.1201
ReMoBr,27.6356,26.3996,-1.2361
K2TiF,9.6516,9.6801,0.0285
LiP2Br,13.6937,14.3302,0.6364
CrFe2Ni,37.1631,27.1055,-10.0576
LiCaP2,21.3292,15.1329,-6.1963
CrFeNi,34.6364,26.7291,-7.9074
CrFeNi2,38.2341,30.4024,-7.8317
CrFeNi2,38.0999,30.4024,-7.6975
V2CuHgO6,19.7461,14.9187,-4.8274
ZrNp(US2)2,65.2377,56.2564,-8.9813
BaPb,25.7752,28.034,2.2588
RbCaTa,11.7267,14.2167,2.49
PrEuIn2,15.3256,17.5565,2.231
BeTeAs2,19.7419,17.7683,-1.9736
Al2BPb,11.2292,14.717,3.4878
Pr7Pb,2.2717,3.743,1.4713
CaMoF2,4.4145,5.4124,0.998
SbAs2Se,43.3197,37.6759,-5.6438
Pu(Ni3Au)2,22.9365,24.5894,1.6529
PrDy2,16.6803,19.8325,3.1522
AcCeSn3,24.9312,27.5738,2.6426
CrTc2Ni,53.0476,45.9599,-7.0877
SrGeSe2,25.3092,22.6565,-2.6526
Ac2Sb4PtAu3,53.3574,47.1436,-6.2138
BeTe2As,27.7314,25.0922,-2.6392
Tl(SnSb)3,32.012,28.0145,-3.9976
BaY2Er,39.1324,35.5552,-3.5772
PrDy2(AgPb)2,30.7923,30.3819,-0.4104
RbSnP2S,25.0357,22.1738,-2.8619
PuCd5Cu3,20.9483,21.9944,1.0462
MgSb2As,27.9969,21.3715,-6.6254
GdYO,38.3196,35.8449,-2.4747
Ac2Al4IrPt3,44.2746,37.4553,-6.8193
NaEr2GaO5,8.7875,9.009,0.2215
PuPb5,55.7944,56.8104,1.016
V(OsRu)2,39.424,40.0896,0.6657
Na4Er3SnSe8,35.6191,30.1746,-5.4445
RbSnP2S,23.7883,22.1738,-1.6145
Zr2CN,66.5126,57.6072,-8.9054
Rb2TmBiTe4,31.2131,30.9899,-0.2232
Ac8Ni3I3Cl,39.8507,40.722,0.8713
ReAgP,52.3899,42.0558,-10.3341
RbTaBe,12.321,13.4833,1.1623
Ac2Tb4Ho7,33.5769,35.1899,1.6129
RbTaBe,12.4254,13.4833,1.0579
Sr2CuAu,20.0456,21.1827,1.1371
Cs3CrTe3,17.4297,19.524,2.0943
Mn2SbPt,76.4957,57.7034,-18.7923
Pr2EuIn,9.3882,11.2578,1.8696
Cs3Hg3Pt,18.0718,15.6923,-2.3794
RbTaBe,12.1516,13.4833,1.3317
BeTe2As,27.5226,25.0922,-2.4304
AcLaRuPt,58.63,46.0256,-12.6044
PuPb3,57.483,59.5126,2.0296
SnMo3As,30.2201,24.7863,-5.4338
Re2Si2Au,23.7923,25.9527,2.1604
ReAgP2Rh,42.3265,32.231,-10.0956
DyVGa2,43.0201,37.9136,-5.1065
Nd8Ru3PtBr4,26.7833,23.8122,-2.9711
AcEuGePt,49.2447,42.4053,-6.8394
AcGePt3,67.5632,52.3813,-15.1819
GdYCu2,26.8553,23.5555,-3.2998
Li2Tl2BiPb2,37.4294,38.3811,0.9518
Ca2ZrIrPt,54.7078,41.0134,-13.6944
Pm2Pb,33.7147,36.3146,2.5999
Sc4TeAu,19.6201,19.7709,0.1509
Li2Ca(ErGe)2,11.5145,13.7094,2.1948
Cu2Ni6Ge,3.9399,5.428,1.4882
Tb2Pr(MgIn)2,14.0287,15.6421,1.6134
PuTc3,76.6046,68.5265,-8.078
Zn3SbCl,14.5213,12.9259,-1.5954
Cr2TcNi,39.8683,34.8118,-5.0566
Nb(CuNi3)2,21.4037,20.7323,-0.6714
NdCrAs2Rh5,33.9922,25.3821,-8.6101
Cs2GeRhI6,23.7909,22.7168,-1.0742
CrTc3Ni,68.5356,56.7103,-11.8253
UAl2Co,32.3031,28.6145,-3.6886
Mn2TlSb,74.0008,59.7364,-14.2644
Rb3TbF6,5.5571,6.421,0.8639
Ca2MnBW,30.8987,26.9846,-3.9142
Sr2TlZn2,16.4038,18.5669,2.1631
Sr(AcZn)2,31.453,33.168,1.715
Ca2TbSm,15.4685,18.1016,2.6331
Sc4InGaAg2,14.1017,13.3434,-0.7583
Na2ZrTe,44.1273,38.7534,-5.3739
SrCa2Cd,7.5523,7.98,0.4276
CaPm6Th,27.5431,29.1618,1.6187
ErInCoRh,25.655,24.4663,-1.1887
BaNa2(ZnSn)2,14.807,14.4612,-0.3459
Cs(TlPb)3,45.2001,46.3964,1.1963
YMn2Co,74.1162,51.66,-22.4561
YCoMo2,32.138,30.1352,-2.0028
Ga5NiRh6,27.9659,21.6259,-6.34
Zn2RuPb,17.9157,20.7971,2.8814
CdRuSe2,32.9953,29.3184,-3.6768
Y2CoRu,36.3571,28.1065,-8.2505
Pr2ThTe3,29.1962,29.5445,0.3483
Pm8RuRh3Br4,29.3987,25.1707,-4.228
Nd3Cu3Ag,13.3539,14.9062,1.5523
PrNbAs,40.7719,37.1147,-3.6572
Nb2SbC,97.959,78.7767,-19.1823
Mn2SbW,70.9787,59.1457,-11.833
LiWSe2,28.1012,26.9675,-1.1337
NaLi2Re,14.998,15.3461,0.3481
Ac4OsPtI2,53.476,51.8542,-1.6218
PmPrY3Ho,10.0296,12.5748,2.5452
Tb3Ga3Cu,11.8844,14.5776,2.6931
Pu(Ni3Ge)2,18.0813,16.9048,-1.1765
TbSm2(YHo)2,23.1253,25.5187,2.3933
CdRu2Se,25.5282,25.2091,-0.3191
P3Pb5BrO12,12.3236,10.9842,-1.3394
TaVSe2,77.0775,63.1847,-13.8929
Cd2RuSe,26.1083,25.0251,-1.0832
La8Ir3I3Cl,40.1335,31.1062,-9.0274
AcPmRuPt,57.2406,47.606,-9.6346
Np2Ni6Ge,22.5651,23.2166,0.6515
NaLi3Re,14.8441,13.6436,-1.2005
Cr2ReAg,22.7461,21.8492,-0.8969
BeNi2Ir,13.8593,17.3884,3.5291
Sb4Se4I3,40.1154,32.8826,-7.2328
Tm2CuSi,16.0354,17.8454,1.81
Tb4AlSi2,25.24,24.6388,-0.6011
BeNiIr,16.5073,21.5154,5.0081
La8TeOs3Br4,38.2183,29.7893,-8.429
PC2Br,31.6569,21.5703,-10.0865
Mn2AgSe,69.7833,53.6137,-16.1697
Ce8Os3I4Br,26.0442,27.1543,1.1101
Hf3Ga3Cu,60.0404,43.818,-16.2224
AcPaCdO5,8.8214,14.6671,5.8457
NdSmY2Ho5,19.8732,22.6743,2.8011
Sm2YHo5Tm,21.9857,24.749,2.7633
Ac4Zn3Pt,45.8635,43.8218,-2.0417
AgSnPt2,52.9266,40.8374,-12.0892
ZnIn4Si,17.9015,17.3439,-0.5576
LiTc2Au,58.5192,51.7862,-6.733
AcCd2GaPt2,47.9974,39.4127,-8.5847
Sm6Y2Ho3Pu,27.9397,29.5665,1.6268
BaCaSe2,39.6058,32.4923,-7.1135
LiTc3Au,67.3829,56.6093,-10.7736
Ta3SbOs,41.6706,41.9697,0.2991
La8Sb3Te4Br,45.9829,35.1,-10.8829
Nb2FeNO,63.8729,51.4554,-12.4175
ZnIn2Si,16.425,15.6186,-0.8063
SrTlNi2,23.5613,22.6038,-0.9575
Zn2InSi2,14.2611,12.0997,-2.1613
LiCaTbHg,10.0201,10.8925,0.8724
Dy2Sc(CoSi)6,16.1047,15.1795,-0.9252
Ca2LaZn,16.0174,12.8235,-3.1939
La2TbNi6,18.2353,16.4819,-1.7534
Zn2InSi,13.398,12.5813,-0.8167
BiP2AuS,29.2918,31.8982,2.6064
GaTeBr,17.1288,17.5391,0.4103
GaTeBr,10.5363,17.5391,7.0028
LaTa2Bi,45.6038,44.2671,-1.3367
K3TeBr,16.8403,16.0904,-0.75
Ac(LaPt2)2,73.9966,53.9739,-20.0227
Tm2Zn2Au,24.3147,26.5258,2.2111
Tm(ZnPt)2,39.5954,30.9145,-8.6809
TaBi2Os,47.8343,50.968,3.1337
Ta3BiOs,42.2933,45.2265,2.9333
ErPAu,25.8789,28.9279,3.049
La(SmNi3)2,15.0991,15.5906,0.4915
BeIn2Ir,21.0361,23.0944,2.0583
Sr2CuMo,24.8492,19.966,-4.8831
Ta2NbNi6,27.966,27.3065,-0.6594
CsCaCu3,12.7219,11.6383,-1.0836
Ag2SnGe2,16.9947,15.8015,-1.1932
Sm(Y3Ho)2,18.4061,20.6324,2.2263
Li2Nd(SmGe)2,12.9598,15.6476,2.6878
Pu2SiPt2,57.4626,49.0528,-8.4099
AgIrRu2,31.8077,28.9768,-2.8309
CsCaCu3,12.0859,11.6383,-0.4476
Ag(IrRu)2,29.8394,27.1196,-2.7199
Pa3CrIn3Se8,42.8927,38.2638,-4.6289
LiAl2In,9.4782,9.2917,-0.1865
Sm2Y3Ho2,21.2921,23.6481,2.356
PPbN2O,26.3253,23.3161,-3.0092
AgIr2Ru,38.3821,35.269,-3.1131
LiP2Ir,24.4996,15.9007,-8.5989
Hf2Be2As,55.4342,39.3405,-16.0937
Sm3(YHo)4,22.3042,23.7532,1.449
Be2InIr,15.7828,18.7068,2.924
TlP2AuS,34.5792,34.5743,-0.0048
AcEuPtSe,56.4303,48.8167,-7.6136
Sr2CuPt,30.4114,24.7386,-5.6728
BaSr2S,20.9042,18.2052,-2.699
Ca4GePb2,18.9303,20.4008,1.4705
Y2CoW,40.5513,30.2625,-10.2888
Ac2Sm3Y6Ho,26.3234,27.9245,1.6011
Y3Ho(ErSb3)2,32.0209,28.4484,-3.5725
Be2InIr,15.9877,18.7068,2.7191
LiP2Ir,24.7797,15.9007,-8.879
Sr2CuRe,27.481,22.1629,-5.3182
OsW3N,82.6089,70.229,-12.3799
AcPtCl6,21.2024,18.5716,-2.6307
YCrAs2Rh5,40.9592,30.3535,-10.6057
TaP2PbO,29.2108,25.9785,-3.2322
Rb3IrOs,20.1029,19.9487,-0.1543
Ba3ReSi,21.1613,15.0725,-6.0888
Zr2Zn2Rh,46.0128,39.3638,-6.649
Tc4Pd,50.077,43.4387,-6.6383
KIrRu,30.4328,26.3247,-4.1081
YCo2Os,36.5235,33.3418,-3.1817
Pr3Cu3Ir,2.9222,5.3019,2.3798
YCo3Os,32.3442,28.6658,-3.6784
ScBi2Rh,34.608,34.2556,-0.3524
Ta3VSe,77.3491,64.0682,-13.2809
Sr2CuRu,13.6518,15.2883,1.6365
LiCo2HgPb,17.4775,16.2554,-1.2221
Na(TaSi)2,18.3894,19.058,0.6686
AsWCl2,10.6975,12.3154,1.6179
PrNi,0.0,0.0,0.0
SrCd3,15.7907,16.2558,0.4652
SrMgPt,34.9725,27.4032,-7.5693
Pu2Al7,11.8109,14.8604,3.0495
Ca2Al7,0.0,2.3013,2.3013
TbSm2Er5Th,27.842,30.631,2.789
Tl2InBr2,25.8842,26.8254,0.9411
AcPtS6,61.3,47.093,-14.2069
Sn2Pd,18.7458,18.6845,-0.0613
Ca2LaTc,39.1574,31.5651,-7.5923
CdAgW,74.6549,57.7835,-16.8715
TbGdZr,51.4917,48.0497,-3.442
ZnBiTe2,36.6334,36.6303,-0.0031
RbLaHfBe2,41.3894,29.3836,-12.0058
Sr2TlCu,21.108,22.3302,1.2221
K2IrRu,26.0166,23.1537,-2.8629
Os(PtBr)2,46.8524,35.9131,-10.9393
Pu2CoSi4Pt3,46.9939,36.9,-10.0939
Ca2TcPb,39.145,36.0623,-3.0827
Ac2PrNi6,20.9709,21.5824,0.6116
SrEuYMg,16.8523,16.4905,-0.3618
ScRh2S,42.2485,34.318,-7.9305
KFe2Sb,20.4829,17.1726,-3.3103
NaScI2Br,17.1497,15.7507,-1.3991
CaReSi2,23.4791,20.4067,-3.0724
CaAc(AsPt2)2,55.2618,41.9881,-13.2737
Sr4Cd2P,16.1884,14.2086,-1.9798
Cd2AgW,60.9646,48.2459,-12.7188
Pu2SbI,52.391,51.0398,-1.3513
TlRu2Se,28.2234,29.0625,0.8391
Y4Os,22.6313,23.3143,0.683
Cd2AgW,60.7369,48.2459,-12.491
Cs3ThTe4,37.3828,37.5477,0.1649
CaRe2Si,30.4678,29.7484,-0.7194
Be2TlReSi,31.3521,29.043,-2.3092
Y2MgGe2,9.262,7.2417,-2.0203
YOs2,33.8238,36.9632,3.1394
KOsCl2,15.8334,16.4219,0.5884
Ac(SmNi3)2,16.5557,18.9554,2.3997
Ca2TcPt,48.1155,38.4988,-9.6168
SrY2Mg,14.1831,12.9313,-1.2519
VGe3,33.8213,28.1688,-5.6525
Pr4Tl3Ag,20.2741,20.9472,0.6731
CaTb2Co,14.6807,16.0737,1.3931
Sr(Ni3Sb)2,21.6485,17.2509,-4.3977
CaGdInPt,35.2508,30.3635,-4.8873
YCrCo4,21.5624,19.7105,-1.8519
ThInGeRh3,33.3828,29.2524,-4.1304
NdGdInPt,40.1519,35.9495,-4.2023
SrCuAu,22.5701,24.6197,2.0496
Ac3(Pt2Au)2,65.1335,56.1619,-8.9716
LiReP2,37.273,27.9433,-9.3297
TbGdInPt,40.5884,36.453,-4.1354
La(HoZn)2,20.8925,20.5426,-0.3499
Rb3NbSb,39.6229,31.4715,-8.1514
Re3PdI,35.0029,36.7695,1.7666
CeTlRu2,26.9029,29.9221,3.0192
MgTaBr2,11.8845,13.3794,1.4949
Al2VCd,35.0815,30.4432,-4.6383
Ce2Ni3P4Rh,17.6808,16.0299,-1.6509
In2MoBr,17.2775,18.1968,0.9193
Y4Os3,28.1608,28.6848,0.524
Ac3Pt7Rh2,75.708,57.8684,-17.8396
AlVCd,46.2192,39.397,-6.8222
RbTaPd2,19.4132,21.1135,1.7003
YOs2,25.4384,36.9632,11.5248
PrThAu2,38.3249,40.847,2.5222
Li2PbAu,22.0721,24.5769,2.5048
In3RuC,30.1479,27.4536,-2.6943
PRhPbO2,29.0936,23.8524,-5.2412
AlOsW2,94.3253,77.8548,-16.4705
Cs12Au5O2,33.8793,32.8437,-1.0356
P2PbWO,73.7308,61.0551,-12.6757
In2RuC2,34.4428,28.6692,-5.7736
EuIr4Pb,42.3727,45.3055,2.9328
CrTcAgMo2,34.7259,29.8985,-4.8274
Ca2BeIr,28.777,19.2518,-9.5253
CaBe2Ir,22.4003,18.5146,-3.8857
Pr3Ga3Ir,5.4927,7.4316,1.9389
CaBe2Ir,22.8315,18.5146,-4.3168
SrCuIr2,31.6191,29.5875,-2.0316
CaBe4Ir,16.8929,14.2928,-2.6001
SrLaCu,24.0595,19.8009,-4.2586
Zr2NbNi6,41.4421,36.1603,-5.2818
NiAsPbBr2,32.728,26.1606,-6.5674
ZrNi2Pd,25.7744,25.8538,0.0794
La(PmZn)2,19.4274,18.9938,-0.4336
TlTc2Ir,70.5683,63.8923,-6.676
Rb2PCI6,23.2588,20.0021,-3.2567
K2Tl2In15,22.246,22.8265,0.5805
BaSc4Te,11.8901,11.8504,-0.0397
U2PbAu2,50.4276,54.6124,4.1848
Zn2MoRh2,25.4912,21.8936,-3.5976
Sr(La2Ir)2,46.8464,34.9617,-11.8846
Ho3Co3Ru,10.2209,14.974,4.7531
NaSm2In,23.5147,24.3948,0.8802
Nd2Zn2Ir,19.6905,20.5109,0.8204
CaCoI,11.1704,12.4926,1.3222