Formula,E_hull_DFT (eV/atom),E_hull_ML (eV/atom),Delta (ML - DFT)
Pr6FeAu2,6.6958,7.0505,0.3546
CaYCu2,22.8051,17.3645,-5.4406
Ba2TlSn4Au3,27.0445,28.0895,1.045
MnCrBr2,46.6754,38.5016,-8.1738
K2ZnAgBr6,9.6611,9.8063,0.1452
ZnCdC2,35.289,26.1379,-9.1512
CaYCu,25.9084,20.4444,-5.464
Nd4Ga12Os,13.6527,15.1477,1.495
KHg2PdBr6,9.2775,9.6935,0.4161
In2NiAg,19.3605,19.1573,-0.2031
NdMnCu4,25.1569,23.2492,-1.9077
Ac6FeRh2,53.6517,51.7253,-1.9264
Te2RuCl,26.4965,26.1704,-0.3261
MnNi2Br,56.5495,50.5983,-5.9512
ErHfAgPd,55.1711,44.8597,-10.3114
Pr6SmSc,7.3051,6.368,-0.9371
Sr3NbAl,38.1577,32.2512,-5.9065
BaScMo,19.2456,18.8333,-0.4123
HoTlPb,43.7617,45.9055,2.1438
TlCdGa,20.2436,22.3156,2.072
HfZr2Nb,120.619,95.0245,-25.5945
ZrNiAg2,37.4755,33.9929,-3.4826
HfZrNb2,131.4198,102.921,-28.4988
Mn2ZnSi,56.003,45.0472,-10.9559
Ca2YCu,20.7806,16.9619,-3.8188
LaSb2As,37.3118,31.3368,-5.975
LaSbAs,34.8077,29.0229,-5.7848
CaY2Cu9,16.8848,14.1937,-2.6911
Ca(YB)2,75.2554,63.2412,-12.0142
NaInNi3,13.5377,13.6029,0.0651
AlIn2Br,13.602,14.572,0.97
Te2Rh,45.135,38.3756,-6.7594
AlIn2Br,13.6732,14.572,0.8988
Sr(IBr3)2,12.3214,12.9953,0.6738
Sr(AuBr3)2,17.141,17.5733,0.4324
Pr6SnRu,21.6832,20.2945,-1.3886
Ca(SmSi)2,15.2344,13.6181,-1.6163
NdSmZrSc,38.4905,36.9675,-1.523
Ca(ThSi)2,30.7315,29.8846,-0.847
Ca2PdSe,34.8759,30.1119,-4.7641
La2SbAs,38.5449,32.0379,-6.507
AcAlBO5,0.0,2.5525,2.5525
Sn2Bi2Sb,39.345,38.9156,-0.4295
AgPtBr3,32.9112,25.4967,-7.4145
Ca2Ag(GeAu4)3,35.2524,35.6888,0.4364
Zr2TlP,62.2984,56.2829,-6.0154
SrTcAs2,36.3008,29.9265,-6.3743
AgPtBr2,37.9291,29.1851,-8.744
Cd(SiPt)2,45.3313,32.8209,-12.5103
HfRuPt3,86.8578,62.175,-24.6827
TeRh2,46.9822,37.3568,-9.6254
LuGa2Sn,17.523,19.5813,2.0583
Sn2Bi2Sb,35.5105,38.9156,3.4051
TePRh2,35.5482,30.703,-4.8452
Rb2Ga3H2Pt5,39.4066,29.0798,-10.3267
Ca2AgWO6,37.9638,32.462,-5.5018
CaTaSe2,54.6545,45.5772,-9.0774
Li2InRe,16.8223,17.5182,0.6959
Sr2Ge5Au3,17.1988,18.7386,1.5398
CaY3B,52.4451,42.871,-9.5742
Pr3GaIr3,14.3939,16.0566,1.6627
KU(CuSe3)2,32.9723,28.2484,-4.7239
CaTaSe2,55.1373,45.5772,-9.5602
Ta3GePt,42.7718,40.2525,-2.5193
AcTbY2Tm,24.7459,27.3387,2.5928
KWO3,12.8218,10.37,-2.4518
Rb4Mn3SnBr12,22.1207,19.1315,-2.9892
ReP2Pb,45.9026,39.9595,-5.9431
In6Ge2Ru,17.1414,18.2417,1.1003
Rb2LiBe,2.7118,2.4748,-0.237
Ce2PaSi2,21.9094,22.2294,0.32
Sm4As2AuSe,32.9247,33.6052,0.6804
Gd2ThAl,31.746,34.8367,3.0907
ZrAlSb2,47.6845,41.4362,-6.2482
Nd3LuFe,21.7234,22.9089,1.1854
Li2TaSeO6,20.7588,18.3855,-2.3733
Ca3YMn,30.138,24.1642,-5.9738
Ta2PPt,43.1099,39.2461,-3.8638
Ce6Ga2Sb,23.1562,23.9151,0.7589
CsTb(AsPt2)2,52.9761,41.0104,-11.9657
La2BiAs,40.713,35.9939,-4.7191
YLu2Th,36.863,40.2773,3.4143
CsCu3Tc,29.9548,26.2048,-3.75
TaPPt2,56.2823,44.4657,-11.8166
Ce2SmSi2,14.2467,14.4972,0.2505
RePbCl,33.198,34.6856,1.4875
LiCa3Tc,22.7643,19.569,-3.1952
MgV,57.5847,43.6283,-13.9564
ReTe2Br,35.0764,34.1724,-0.904
U4NbRh12,58.6414,47.0082,-11.6332
SrPr5Te8,21.864,21.4319,-0.4321
Cd(NiGe)2,17.0476,13.3852,-3.6624
AcCe2Y,32.2026,33.9532,1.7506
InBiC2,51.043,41.3011,-9.7418
K2ScPb,20.6063,20.7258,0.1195
NaCd3O,16.5522,16.0708,-0.4814
Ta2PtRh,52.7114,46.556,-6.1553
InCu2Br,14.7262,14.2792,-0.447
CaNdI6,19.802,20.8621,1.0601
Tm(UIn4)3,29.581,30.7824,1.2014
Cu2TeSe2,30.7312,26.5641,-4.1671
Be2BiI,30.0193,30.4603,0.441
BeBiSb2,36.7227,34.1542,-2.5685
SrTc2As,51.1623,46.7779,-4.3843
InCuBr2,15.3055,14.8831,-0.4224
ErPu2Pd9,27.098,28.8175,1.7195
RePb2Cl,37.8338,39.4901,1.6564
InCuBr,16.915,16.6141,-0.3009
LiAcNd2,28.7982,31.1004,2.3022
CuSbRh,7.0996,6.9205,-0.1791
ReNi7Rh4,30.1282,22.6321,-7.4961
Mn2ZnPb,65.1007,55.9315,-9.1692
NaLiBeW2,24.6458,24.0882,-0.5576
Pa4Ni12Pt,25.0893,25.2396,0.1504
PmY2Te3,28.4714,28.4433,-0.028
Ta2GeP,23.2822,25.5578,2.2756
Sr3NpO6,0.8601,5.342,4.4819
Pa4Ni12Rh,22.7684,23.6948,0.9264
RbCrP2,28.8914,24.6514,-4.24
La3Yb,47.5579,37.4701,-10.0878
Li2AgPbF6,7.4876,7.5179,0.0303
CdPAu,23.4949,24.7732,1.2783
Ac6Ga2Hg,40.7911,42.7623,1.9712
Ti2SnSb,22.8033,18.7731,-4.0302
Ca2CrOs,25.3237,23.8706,-1.4531
In6Ga2Bi,21.215,22.0375,0.8225
La3Pm4YTe8,36.3574,33.2154,-3.142
P2PbAu,27.3562,28.921,1.5648
AlRh2W,34.6684,29.9482,-4.7202
BeNiSb2,29.1064,23.6822,-5.4242
Be2NiSb,17.6745,15.2292,-2.4454
ZrSbC2,59.5735,46.262,-13.3115
KLi2ZnF6,1.0953,2.7787,1.6834
Li2GaPdF6,7.0287,7.4194,0.3907
KLi2PmF6,6.0135,6.836,0.8225
Hf2TaV,125.1502,93.3022,-31.848
YTmZnPb,27.8275,28.2836,0.4562
Ta2CdP,26.3213,28.0715,1.7503
Ce(PuGa3)2,23.9533,25.5105,1.5573
NaZnIn2C,27.1742,22.4132,-4.761
LaNb2Ag,85.7765,68.2898,-17.4867
SrLi2GeBr6,12.8615,12.2514,-0.6101
Ac5Tb,58.2446,59.786,1.5413
Tc2Au,70.0245,64.0315,-5.993
BaSbSe4,39.5065,32.0796,-7.427
Li2HgAuI6,16.8119,17.7873,0.9754
Nd2PaGa6,18.0087,20.1376,2.129
SrLi2GeI6,12.2426,13.7334,1.4908
LiAlFe2,17.7498,16.4725,-1.2773
U(PaGa3)2,27.9549,30.2217,2.2668
TbPt5,78.439,58.1469,-20.2921
Al2AgSb2,22.1253,19.09,-3.0352
Pa2CuSi2,27.3678,28.7131,1.3453
Zr(CdCu)2,26.4087,25.6176,-0.7911
CoW2Au,27.1911,32.6052,5.4141
PrAlIn,3.4037,4.8909,1.4872
Li2BeAl,12.4722,9.6656,-2.8066
YBi3B,74.0657,67.0095,-7.0562
Rb(NiSb3)4,37.5218,29.797,-7.7248
Cs(NiSb3)4,38.8488,31.1759,-7.673
LiAg2HgBr6,16.4398,14.8644,-1.5754
Co2CuAu,33.5784,28.9683,-4.6101
Zr3Au5,65.8835,61.2173,-4.6662
SmUFe4,15.6666,18.5318,2.8652
MnCdSi,44.7924,36.6975,-8.0949
LaErIn6,24.5832,23.9028,-0.6803
Li2MnHgI6,24.0764,22.4485,-1.6279
SmHo3In4,23.1958,25.4848,2.289
Tm2InHg3,12.9869,14.3618,1.3749
Sr4Ge2I,10.1158,11.7687,1.6529
Pm6NdGa2,20.9004,23.7948,2.8944
Al3Ag3Pb,19.7929,17.9293,-1.8635
YAsAu2,28.965,31.7131,2.7482
KAl2V,33.7997,27.2094,-6.5904
Ce3IrSe,11.8372,15.415,3.5778
MgAl2AgH8,6.8319,4.8403,-1.9916
YAsAu,17.2983,21.3693,4.071
P2AuSe,22.0015,21.3697,-0.6318
Pu6Ga2Sb,54.7869,54.6571,-0.1297
FeTeAs2,35.3859,31.5029,-3.883
La(Ag3Ge)2,28.4742,23.0127,-5.4615
BaCoAu,20.9418,19.6081,-1.3337
FeTe2As,39.1017,34.9529,-4.1488
Sm3CrIn3Ge2,17.4965,18.702,1.2055
TaCd2Ru,23.2385,26.1583,2.9198
YBeB,60.5013,53.3201,-7.1811
ZrFe2Au,36.4112,34.9933,-1.4178
Sr2Ac3Pt2,56.4066,50.6031,-5.8036
PPtI2,34.5191,27.2749,-7.2442
MoAu3,34.9341,39.2957,4.3617
SrAcPt,55.1729,48.3251,-6.8477
YAsAu3,33.947,34.4925,0.5455
SrAc2Pt,57.4138,53.2831,-4.1307
Re2TeBr,34.5587,35.7702,1.2115
NaCrAs2,10.5651,11.4618,0.8966
CdPb,35.9437,37.3558,1.4121
TlAg2Pt,50.8537,41.5279,-9.3258
Th2RuO,42.2939,44.0291,1.7352
HfGaTc,56.937,46.5003,-10.4367
Li2AcOsO6,22.2355,22.1738,-0.0618
LaBe2In,17.8966,16.4275,-1.4691
Pm(Dy5Th2)2,37.8988,39.2644,1.3656
DyCu4Sb,16.3704,16.9276,0.5572
Rb3Dy3SbTe8,30.2226,28.5631,-1.6595
SrSm2DyS4,37.7581,31.0471,-6.711
PmMg2AlH8,6.9935,6.0404,-0.9531
Pu6Ge2Os,42.5564,44.9496,2.3932
Sr6TlGe2,13.6875,15.4611,1.7737
Sr6CdGe2,11.5483,12.0756,0.5273
Ba4IrI2Br,11.4798,12.7387,1.2588
Ac(ThGe3)2,27.4889,29.3918,1.9029
Er6InGe2,18.3458,21.4548,3.109
Sr6SnGe2,9.9887,11.6188,1.6301
CeCd2Ag,20.617,20.8222,0.2052
MgPt4,66.1367,47.916,-18.2207
LaFeAg4,29.7781,23.8806,-5.8975
Li2ScReO6,41.0311,37.6735,-3.3576
Sr(GaRe)2,22.6481,22.4995,-0.1486
Li2ScTcO6,39.5909,35.5117,-4.0792
AcH6PdPt2,25.8464,21.5654,-4.281
TiFeAsBr2,24.0304,20.8145,-3.2159
YAs3Au,18.9358,19.8444,0.9086
CaTl2Ga3F12,10.9434,13.3213,2.3778
Ca3TbTl2F12,10.9697,13.8559,2.8862
TlReCl,32.6981,34.915,2.2169
La2Tb3Pr2,24.913,22.7683,-2.1447
AcH7(PtRh)2,28.3351,22.1236,-6.2115
TaMnSb,60.2787,53.8624,-6.4163
Li2PuTaO6,13.6905,16.4229,2.7324
YAs3Rh,18.5187,16.5768,-1.9419
Ca2Er(Mg4Cd)3,7.2027,7.9078,0.705
Tc2TeP,51.0542,44.7092,-6.345
TaTeBr3,22.9115,22.4684,-0.4431
AlCrRe3,28.0759,29.9821,1.9062
Pu6Ge2Pt,59.8809,57.9154,-1.9654
Ba2Li6AgPt,15.377,11.4561,-3.921
BeAl3C,24.3036,17.6121,-6.6916
Pr3NiI,3.7997,5.2405,1.4407
Th6TcGe2,55.9691,56.8097,0.8406
Be4TeAs,11.8576,10.963,-0.8946
ZnRe3Sb,46.0451,39.4402,-6.6049
U6Ge2Sb,52.7126,54.7893,2.0766
Ba2LiAlIn6,13.6576,13.1485,-0.5091
POsRu2,11.6869,17.973,6.2861
Mn2AgSn2,48.9441,41.0267,-7.9174
LiNp(AgI3)2,22.9171,22.1293,-0.7879
LiAl2GeS6,35.5694,24.8158,-10.7535
GdZrP,24.1409,18.0766,-6.0643
MnCo2PtSe6,43.8297,33.7603,-10.0694
InFeAg3,25.827,19.8335,-5.9934
TcNiAg3,39.9171,32.5884,-7.3287
Na2Sn2Ru,17.5935,17.4825,-0.111
La2Gd,44.2252,36.5896,-7.6356
LiIn2BiBr6,16.3285,17.3279,0.9993
Ce2NdGe6,13.8747,15.62,1.7453
CrFeAg2,29.6792,22.5846,-7.0946
Cs2FeReO6,21.4437,20.8446,-0.5991
MoAu2Se,39.9983,38.9091,-1.0893
Sm4Ga12Ir,17.0722,16.9469,-0.1253
TaPbF2,34.0537,32.4633,-1.5904
Sm4Ga12Pt,16.4434,15.8512,-0.5922
LaGdSc2,22.8472,21.4366,-1.4106
P2OsRu,7.9661,13.4244,5.4583
LiTl(InBr3)2,18.8798,19.1732,0.2934
Ba2LiAgBr6,8.6352,8.9079,0.2727
Mo2AuSe,32.0837,31.6453,-0.4384
LiAlIr2,25.1557,28.3631,3.2074
NaSnRu3,20.3482,20.7996,0.4514
LaGdSc4,17.0866,16.4611,-0.6256
WBrCl2,15.0286,15.7829,0.7543
POsRu3,20.6982,22.3559,1.6577
LiAlIr2,25.1208,28.3631,3.2423
NaSn2Ru,20.4195,21.7175,1.298
LiTb(InBr3)2,12.526,14.0756,1.5496
LiAc(ReN3)2,56.5595,50.9609,-5.5987
LiTh(ReN3)2,56.2912,50.5801,-5.7111
Ce(TmIn4)3,21.8081,22.9348,1.1266
Rb2LiNpBr6,12.3324,13.5174,1.1851
Rb2LiNdBr6,8.1601,9.4889,1.3288
AgPIr2,37.018,33.6843,-3.3337
YAsRh,15.987,15.5622,-0.4248
NaMn3C,80.5167,64.8294,-15.6873
CsBaP,9.8755,10.8654,0.99
LiPb(NO3)2,5.9512,6.4552,0.504
Gd2ZnFe,18.4642,19.1879,0.7237
MoI4,17.7887,18.2788,0.4901
Al(GaSb)2,18.6922,16.935,-1.7573
AcNi4Pt,29.666,27.1882,-2.4778
OsRu3I,29.5358,28.4651,-1.0708
Sc2In3,11.9826,12.1353,0.1527
AlAg2Pb,29.6601,27.5185,-2.1416
LiLaLuIn,27.3417,24.5993,-2.7424
Ac(NdGe3)2,18.2378,19.9907,1.7528
Pm2NdGe6,13.8416,15.6454,1.8038
Zn2CrFe,17.2916,14.3365,-2.9552
AcNdTePt,53.8996,49.3124,-4.5873
LiSm(TlCl3)2,11.3065,13.8781,2.5717
Al2AgP,26.2399,21.5781,-4.6618
Tl4FeAg,39.9765,39.3491,-0.6275
Cs2LiTeCl6,8.9057,9.6706,0.7649
PmNd5Er4,26.6978,28.4206,1.7229
AlGe2C,26.0824,20.0717,-6.0108
BiSb2P,37.4444,35.0138,-2.4306
Cd(FeP)2,30.7339,26.5433,-4.1906
Rb2IrOsCl6,10.9211,11.015,0.0939
Sr(NdGe3)2,12.7342,14.4717,1.7375
Mn(PRu)2,19.8463,19.9025,0.0562
LiTm(TlI3)2,22.9536,24.7385,1.7849
Sm2Ga3CuAu4,27.218,27.9108,0.6928
Ba2TaBe,13.3029,13.3088,0.0059
CaSc2I,16.5053,12.3156,-4.1897
LiPm2Ga6Cu,7.2236,8.9066,1.6829
LiCaAg2F6,5.8439,5.4026,-0.4413
YAsRh2,23.1113,20.8385,-2.2727
InNiAu2,30.1036,31.7851,1.6815
NaCuTe2,25.3432,25.0186,-0.3246
InNiAu2,30.137,31.7851,1.6481
Pd2Se2Br,24.4179,22.2982,-2.1197
AlIn2Si,24.8432,22.4934,-2.3498
Co2MoAu,20.2222,22.0188,1.7965
MnAlMo2C,46.5966,35.0025,-11.5941
Ba2YB,51.0679,42.793,-8.2748
TiVRu2,41.0408,37.2426,-3.7982
LiAlOs,19.0969,19.8596,0.7627
AlInSi2,23.6835,19.6064,-4.0772
Y2ScCuRh,30.4865,24.977,-5.5095
Zn4GaTe2,17.7646,17.4909,-0.2738
Sn2Se2Br,29.4332,25.789,-3.6442
Cs2LiNdI6,16.5102,17.3936,0.8834
K2LiPuBr6,14.2551,15.1134,0.8583
Ce4Ge12Os,14.377,15.4533,1.0763
Ca2ZrCr,39.3361,32.9166,-6.4195
CrNi2Ag,24.0159,21.6281,-2.3877
Na2LiICl6,10.3856,10.1779,-0.2077
Ca2ZrCr,39.3318,32.9166,-6.4152
ErTmBi,37.7847,40.6186,2.8339
TiZn3Te,15.1227,14.8075,-0.3152
ZrScVRh,69.9704,56.6554,-13.315
Y5P4S,36.4372,28.2962,-8.141
Be2SbSe,19.2146,17.4158,-1.7987
TaSiPd,0.0,5.7507,5.7507
LaTmAg,25.8643,21.7197,-4.1446
AcGdPt4,74.2753,58.9288,-15.3465
Tc2PdPt,73.6266,60.2145,-13.4121
Cu(NiAg)2,12.7901,12.5956,-0.1945
Ac2CePt,60.6753,56.3093,-4.3659
TeAu4,46.4326,47.3316,0.8991
NaCuSnTe3,41.0222,36.3361,-4.6861
LiMn(TlBr3)2,29.9495,27.4705,-2.479
LiPm2MnGe6,14.986,15.1291,0.1432
Ag(TeAu)2,39.1822,37.5749,-1.6074
LiMn(GeSe3)2,35.9518,28.4051,-7.5467
LiAc2MnGe6,22.9697,22.9614,-0.0083
LiCe2MnGe6,14.6913,14.8401,0.1488
LiLa2MnGe6,20.16,17.1553,-3.0047
BeSbSe2,35.5262,28.7549,-6.7712
Na2LiBiBr6,19.8953,19.2905,-0.6048
NaZrCu3,29.5606,25.7692,-3.7914
Hf2Pb2Au,82.3969,67.0979,-15.2989
SmGa2PbAu5,36.4109,37.647,1.2361
CrGaF,6.2808,5.5472,-0.7336
Pr5TlGa2,5.8881,5.599,-0.2891
Sm2NiAuC,32.3226,29.7412,-2.5814
BaInPt2,44.1752,32.9263,-11.2489
Rb2GaGe2,5.9451,3.9737,-1.9714
Na(CuTe)3,20.8543,19.8575,-0.9968
RbBa2Nb,34.2786,27.8364,-6.4422
Na(SnMo)2,38.8669,27.3339,-11.533
ScCrCd2,21.1682,19.0842,-2.084
Y2CrSiO6,19.5092,17.0426,-2.4666
Ca2TeRhC,31.8111,24.7537,-7.0575
Na2SbOs,30.7819,30.0722,-0.7098
Gd2PI2,27.6088,25.8123,-1.7965
CrCdI2,18.8126,18.6914,-0.1212
Sr(CdI3)2,18.9245,18.9551,0.0307
YCuRu2,26.329,23.7762,-2.5528
Sm2MnCu,39.0812,36.1085,-2.9728
CsBa2WO6,1.0703,3.9311,2.8608
SrY3Ru,19.8821,16.9037,-2.9785
Na2MnAuBr6,26.1881,25.3511,-0.837
CeYRu,16.7665,14.0077,-2.7588
AcPtN,44.0556,42.2602,-1.7954
SbAsPd5,4.9591,6.9105,1.9514
TbTmAgOs,32.2923,34.0683,1.7759
LiCeNd2O6,4.8981,6.4026,1.5045
NiAs2WSe,43.0371,37.6917,-5.3454
YMnNiI2,69.7976,60.4644,-9.3332
Ac(PtO4)2,22.3346,18.6898,-3.6448
ZrGe2Pb,37.6678,36.8225,-0.8453
ThNpOs2,54.8526,59.148,4.2955
InIrSe,37.2278,36.5242,-0.7036
LiPm2CuO6,4.0114,6.1447,2.1333
CrSbRu,23.5154,22.8055,-0.7099
Ac2Tl(Cd4Ag)3,27.9975,27.1765,-0.821
Na2Sb2Os,31.7076,28.5778,-3.1298
LaCoBr,30.848,24.0847,-6.7633
AsRh2C,43.0388,31.9117,-11.1272
Y5CuRu4,26.2216,19.8412,-6.3805
Ca2P2Os,26.7547,24.063,-2.6917
Ca3POs,23.2287,21.5185,-1.7101
BaIn3Cl,12.529,13.2375,0.7085
LiAlSe,20.8649,16.1925,-4.6724
LiNd2GeO6,3.3756,5.9498,2.5743
PrLuHfTh,59.8384,51.6526,-8.1858
LiAlRu,10.6933,11.4907,0.7974
NiBi2Sb,44.9736,41.9611,-3.0125
Na4TeIr2,33.1186,30.8202,-2.2984
Ca2FeC,27.9275,23.3601,-4.5674
CaLaPr,18.3494,14.5735,-3.7759
Zn3SnIr,20.8874,19.1113,-1.7761
SrY3Ru,20.0541,16.9037,-3.1504
LaCeGdSc,27.9208,26.663,-1.2577
YRu,0.0,2.437,2.437
NaPmZnSe3,28.046,23.4231,-4.6228
Ca2CuOsO6,22.3439,21.5407,-0.8032
Li2CaDyF8,5.7057,6.6334,0.9278
Sr3YRu,18.1753,15.6035,-2.5719
SrLa3Re,48.4362,35.2383,-13.1979
Cs2AlI,18.7344,17.9022,-0.8322
LiMgNpO5,15.2624,17.7461,2.4837
CaLa4In,38.7082,29.5351,-9.1731
Er4TlPbO,25.3039,27.4949,2.191
SrY3Ru,13.4877,16.9037,3.4159
SrY3Ru,14.2816,16.9037,2.6221
LiHfMn2O6,75.8919,64.8465,-11.0454
CoPbW2,37.276,39.6195,2.3435
Ca2Tb(PPt4)3,67.8856,49.8414,-18.0442
Tb6YSc2,15.4492,17.8648,2.4156
CaLaIn,21.6708,19.9067,-1.7641
YCuRu,8.9673,8.7401,-0.2272
KLaTa2,29.6816,29.7427,0.061
POsC,29.0319,26.3077,-2.7241
Ca2OsRu,17.6546,19.9521,2.2975
KSrIrO4,25.319,22.7578,-2.5612
K2Rb(NaBi)2,26.0348,24.7755,-1.2593
Zn2As2Ru,10.2699,8.1989,-2.0709
PbAu,49.9104,52.6723,2.7619
CaOsRu,21.7816,20.2818,-1.4998
CsReSi2,17.952,17.9868,0.0348
Tb3DySb2C,35.9992,32.4288,-3.5704
Ta2AsPb,34.1925,37.1604,2.9679
InAsP2,18.4802,17.5026,-0.9777
Sc5Cd(InRh)2,12.8766,11.5772,-1.2993
LiAlRu,10.2444,11.4907,1.2464
In2AsP,22.3101,20.6393,-1.6708
Tb2Pr(AlAg)2,16.953,16.7877,-0.1653
CsAlV3,85.1791,66.4248,-18.7543
TaBiAs,14.1247,20.6412,6.5165
TaAsPb,33.1605,37.0612,3.9007
TaBiAs3,24.6334,25.787,1.1536
ScCrCu,28.0368,22.2045,-5.8323
LiTc(RuO3)2,23.5023,20.2001,-3.3021
LiLa2TeO6,25.3551,23.3948,-1.9603
PrCrIn2,5.7341,7.5816,1.8474
LiTe(PbO3)2,15.9129,16.6236,0.7107
Sc2Cr2Cu,19.1632,14.5704,-4.5928
LiAlRu,10.2133,11.4907,1.2775
LiY2MoO6,30.7048,26.8697,-3.8351
Ac2AlGa3Pt4,50.5428,41.2324,-9.3105
TaCrGe2,34.4444,26.5914,-7.853
Ga2Cu2Te,13.9222,12.6535,-1.2687
Sb2Rh,46.2663,37.2685,-8.9978
Sr(TmGa3)2,13.3977,15.2338,1.8361
KRbTaSe4,28.9711,24.9593,-4.0118
AcTb2Pt,51.2369,47.5471,-3.6897
Pu(ThGa3)2,27.7645,29.7264,1.9619
BaLiV2O6,30.9783,26.0144,-4.9639
MnSiPt2,73.129,55.0271,-18.1019
FeTe2Au,32.9713,32.829,-0.1423
CaMoOs2,29.8867,30.4663,0.5797
SrCaGa,11.0867,10.4051,-0.6817
Np4Ge12Pt,28.1113,27.7383,-0.373
LaTaW,43.0534,41.8934,-1.1601
Sr2TiNi,11.3975,12.5372,1.1397
P3Ir2Au,32.5836,29.0625,-3.5211
Ca3MoOs,18.2581,16.7487,-1.5094
La2TaW,45.3247,40.6844,-4.6403
LiPu2NpS6,54.4765,45.4447,-9.0317
SiTe2Au,36.936,33.9105,-3.0255
LiTb(GeS3)2,32.8472,24.4298,-8.4175
LiGe2SeS6,36.4443,26.189,-10.2553
LiPu(NpS3)2,54.3688,45.5099,-8.859
SiTeAu2,37.9781,38.1313,0.1531
ErMn2O5,49.5607,46.1758,-3.3849
SiTe2Au,33.1345,33.9105,0.776
ZrAs,5.021,9.0884,4.0673
Ac2BeAl3Pt4,53.1934,42.2676,-10.9259
LaNbAg2,64.2955,50.7068,-13.5887
Ac(SiPt)3,46.8156,34.3628,-12.4528
Pu2ThGa6,28.5409,30.4115,1.8706
Tm2Se2I,34.5186,31.548,-2.9706
CsRbCu3,10.466,10.3554,-0.1106
Ac(TmGa3)2,19.036,20.8957,1.8597
InBiO3,2.9647,7.6907,4.7259
BeIr2Pb,29.4005,33.6715,4.271
LiTb(SiS3)2,35.5488,25.4851,-10.0637
Na2LiOs2,22.9366,24.8763,1.9397
Cd2PbAu,34.5726,35.6314,1.0588
LiTb2PaS6,44.7685,35.7346,-9.034
Tm(ThGa3)2,23.0788,25.1082,2.0294
GaFeCu3,22.9705,18.308,-4.6625
LiMnPd,33.7422,30.5928,-3.1494
Pu(UGa3)2,28.6329,30.4743,1.8414
InBiO2,10.2143,12.441,2.2267
AsAu2,31.4842,34.0074,2.5232
TlCd2Au,34.1459,35.2101,1.0642
PRuBr2,16.3511,15.2589,-1.0923
LiPm2ZnGa6,7.1096,9.1851,2.0755
LiSc2Al,6.2965,7.3871,1.0906
Na3LiRu,19.0274,16.3094,-2.718
BaCd2Au,21.1794,22.3102,1.1308
YbTlCu,24.6874,28.0394,3.352
Ta2Ti2Mo,10.0665,15.6485,5.582
AsP2Au,25.4013,24.1502,-1.2511
LiSc2Al,6.2042,7.3871,1.1829
NaZr2Sb,61.403,54.1131,-7.2898
AcTbPtBr,47.5006,43.1689,-4.3317
LiU(AgI3)2,22.9906,21.946,-1.0446
Ac4In12Au,31.5533,32.4911,0.9378
Nd4In12Pt,24.5786,24.0644,-0.5142
Dy(ZrGa3)2,29.9749,28.0094,-1.9655
LiNp(InBr3)2,16.5,17.9867,1.4867
RbTaSe2Br,28.532,24.6384,-3.8936
CaSc2Ti,12.2971,8.8645,-3.4326
NaInTe2,28.4461,26.9594,-1.4867
ThZnIn,31.025,33.5853,2.5603
Ac6P2Ir3Br,48.0267,47.0461,-0.9806
Ac2RuPt,61.8855,54.5422,-7.3433
Ge3PtW,32.4667,28.0971,-4.3696
CsAlC,17.1207,16.3383,-0.7824
Hg2PdSe2,19.9757,17.4272,-2.5485
Sn2PdSe2,28.832,24.4042,-4.4278
Ge2AsPb2,22.906,24.1952,1.2892
Li2(TbIn2)3,18.7108,19.1373,0.4264
AgRuRh3,49.9713,37.1556,-12.8157
TbHfInAg,55.2453,44.5184,-10.7269
Gd2CoGe,25.1421,24.9039,-0.2382
LaBe2Cu,17.7162,13.5527,-4.1635
Sb(AuI4)2,29.4753,29.1454,-0.3298
LiIn2SnCl6,9.2676,10.3595,1.0919
Cd6GaSn2,18.3872,19.2446,0.8574
NaTl(HgBr3)2,11.5312,11.579,0.0478
Rb(H3Au)2,7.7949,9.0219,1.227
BaWN3,1.8419,4.7605,2.9187
NaEr(TlBr3)2,17.602,19.1497,1.5477
NaHo(TlBr3)2,17.492,19.0457,1.5537
CsLa2Al,32.9266,27.1551,-5.7716
HfGa6Tc,35.7039,29.2065,-6.4974
HfGaTc,81.1894,46.5003,-34.6891
TaPOs,19.8859,24.6956,4.8096
VO2,20.7407,16.2317,-4.509
La2In3Ni2,24.6285,22.1675,-2.461
Cs2Tl6Ga,40.1702,40.8191,0.6489
TaP2Os,23.0061,25.6004,2.5943
BaCd2Re,49.6787,39.9979,-9.6808
ZrAlGa3,25.9898,23.6603,-2.3294
CaTaOs2,31.9393,35.9705,4.0313
In(Bi3Pt)4,60.6202,55.2057,-5.4145
DyPb3,46.1665,48.3503,2.1838
Sm3Pd2Au7,36.2492,37.9184,1.6692
Zr2Al5Ga,21.723,20.3064,-1.4166
Cs2MgAgCl6,6.2035,6.942,0.7385
CaTa2Os,30.372,34.7362,4.3642
MnSiSb2,51.2417,42.9171,-8.3246
Y3Ru,19.0877,17.432,-1.6557
TeOsC2,45.5198,38.5947,-6.9251
Pd2CBr,28.2237,24.0087,-4.215
MgCd(InHg3)2,5.0688,5.4674,0.3986
HfHg2C,47.4429,34.7001,-12.7428
CdRh2Cl,30.7366,24.0419,-6.6947
BaCd2Re,49.4792,39.9979,-9.4813
YRu,16.5807,2.437,-14.1436
HfPt2Rh,84.5918,60.9594,-23.6324
Li2AcI4,18.0699,20.0952,2.0253
Ga(AuI3)2,24.294,24.8895,0.5956
CaAl2Se,35.8581,29.2284,-6.6298
Tb2PmScP4,21.6121,20.6072,-1.0049
HgIBr,9.5399,11.3301,1.7902
CaAc2(AsRh4)3,41.6623,32.0637,-9.5986
CaAlSe3,46.468,36.7011,-9.7669
C2Br2F,29.4832,20.9975,-8.4857
Ce4Sm2C,30.1988,29.0068,-1.192
Ba2SbAu2,23.5117,23.9918,0.4801
VZnC2,58.7016,43.4689,-15.2327
CaAlSe2,46.1833,34.0593,-12.124
Ti2CoPt,51.338,41.628,-9.7099
Rb2LaC,26.5029,20.0212,-6.4817
Sn2Se2I,31.7955,28.1095,-3.686
Ac2GaAs3Ir4,33.4404,35.371,1.9307
NaTl2PbCl6,16.1974,17.0118,0.8144
SrYRu2,19.8165,18.2381,-1.5784
In12Sn4Bi,22.2673,23.0304,0.7631
PRhC2,37.4554,24.9397,-12.5156
Cr2ReGe2,18.8066,16.0882,-2.7184
PRhC2,45.0259,24.9397,-20.0861
ReSnAs2,20.7749,23.1484,2.3735
CoPbBr,34.5473,32.6357,-1.9116
HfTlTe2,53.9577,44.9842,-8.9736
Ru3WO,44.61,31.864,-12.746
HfTl3Te,68.2332,59.2011,-9.0321
Hf3TaCd,98.4597,72.6885,-25.7712
Ac2Be3GaPt4,48.7391,39.6524,-9.0867
LaBe3,8.8963,9.0048,0.1085
Hf8Sn2Te,111.8995,79.7911,-32.1084
SrY2Ru,21.4675,17.3467,-4.1208
MnCo2IrSe6,39.0053,31.7958,-7.2095
VCo3(CuH4)2,20.5635,15.6888,-4.8747
Sr2YRu,18.8585,16.5394,-2.3191
LiLuAl4,9.3606,10.2505,0.8899
CeZnCd2,17.6495,19.0403,1.3908
Rb2PBr2,8.1283,5.4961,-2.6322
Fe2Si2Pb,14.5937,11.9695,-2.6242
SrY2Ru,21.0265,17.3467,-3.6798
MnIn2PbBr6,24.7278,23.218,-1.5098
AcTbPt4,73.8263,58.5128,-15.3135
NaTl(FeBr3)2,13.223,12.7639,-0.4591
RbNa(FeBr3)2,8.0986,7.5367,-0.5618
SrY2Ru,21.1154,17.3467,-3.7687
As2OsBr,18.6462,20.9536,2.3074
NaGa(SnSe3)2,32.1341,26.3906,-5.7435
Cd2AgC,31.2648,25.5161,-5.7487
As2OsBr,18.4346,20.9536,2.519
TaTcRu,49.1079,47.6318,-1.4761
NaCr(InBr3)2,15.3787,15.1461,-0.2326
Rb2NaCrBr6,11.2217,10.7966,-0.4251
AsRu2Pt,35.7175,29.1692,-6.5484