Formula,E_hull_DFT (eV/atom),E_hull_ML (eV/atom),Delta (ML - DFT)
InP2PdCl,12.8079,12.2883,-0.5196
BeInBr2,10.4833,11.7189,1.2356
BeIn2Br,13.3484,14.3934,1.045
SrY2BiC,42.6868,35.4988,-7.188
KSc3Br,8.8282,8.6406,-0.1876
La11Nd4Ho9,38.4764,32.5257,-5.9507
La11Nd4Er9,38.8745,32.9211,-5.9535
Y2Sn2Hg,25.6256,21.4005,-4.2251
BeIn2Br,12.8682,14.3934,1.5252
KLiSnTe2,19.4191,19.2891,-0.13
Na2TePb2,36.3913,34.5952,-1.7961
HfZrS4,69.2817,52.46,-16.8217
Eu3(AsPd)4,16.8898,18.3694,1.4796
ZrNbS4,76.6459,58.4273,-18.2186
CaYNi2Hg,39.2954,32.7327,-6.5627
BaNaZnIn,12.856,13.0057,0.1497
BeSeN2,35.7393,29.6902,-6.0491
LaScPdPb,35.3958,31.749,-3.6469
NaThRh4,47.407,37.9836,-9.4234
ZrUSe3,53.9577,45.7892,-8.1686
YbCuSeO,16.241,17.2596,1.0185
K3ZnI6,14.6996,15.1662,0.4667
Na3MnIn3Br8,21.0054,19.9911,-1.0143
Na2ZrPb2,47.0934,43.4647,-3.6287
ZnTcI2,37.474,33.0506,-4.4234
KVSn2Ge,38.9991,33.0775,-5.9215
Tm6CrSn2,25.7162,27.7083,1.9921
NaPm(YHg2)2,18.3125,16.3133,-1.9992
NaZr3Pb,75.6009,65.2227,-10.3783
Ac2OsPt,64.7919,60.6225,-4.1694
YHgTe2,28.7068,29.4845,0.7777
Y2GaMo,20.699,15.356,-5.343
Y2HgTe,35.4718,31.4227,-4.0492
In2Pb2Br,34.1281,33.6727,-0.4555
Y2HgTe,35.1012,31.4227,-3.6785
Sc2SBr,29.1147,26.7804,-2.3343
YHgTe2,32.9267,29.4845,-3.4422
Sr3Cd(CuO3)2,5.9854,6.1017,0.1163
KGaAgSn2,19.0544,17.7984,-1.256
HfPS2N,65.3988,45.299,-20.0998
LaY2ReHg,39.472,33.2927,-6.1792
Pr2PbC,25.8091,23.0883,-2.7208
CsPa2BeO8,11.9169,13.3128,1.3959
Na2YHgRu,23.8957,20.7253,-3.1704
Y3AgHg2,25.8157,20.7238,-5.0919
Y4Ni2Hg5,48.8437,42.2966,-6.5471
CaY3Hg4,15.6508,12.9325,-2.7183
Sr2Mn3,60.0085,49.4489,-10.5597
TaReN2,82.4666,78.4642,-4.0024
MnNiIr2,73.5299,69.4939,-4.036
Y4SiHgC,36.3726,28.0009,-8.3717
Os2RuN,41.2306,41.9175,0.6869
NiS2,25.0799,17.6918,-7.3881
GaRe2Os,32.6251,37.7703,5.1452
K2HoSnSe4,32.0034,26.5779,-5.4255
Li7Sb2S,4.205,2.4237,-1.7813
YErAlHg,26.2036,22.9098,-3.2938
CsTlF3,6.735,8.8984,2.1633
Ca2SbRh2,26.0944,19.7454,-6.3491
La4Dy11Ho9,31.8235,30.6248,-1.1987
NdYSiHg,27.9046,25.7408,-2.1638
Sm2YErHg2,17.3893,17.759,0.3697
Ac9La4Hg11,32.2837,30.4563,-1.8274
Sc(InGe)2,18.0553,14.8743,-3.181
SrPuTl2,46.622,48.453,1.831
Be2CrRe,12.1781,15.0943,2.9162
CaSbOs2,29.539,31.5042,1.9652
YbHfGe3,35.3136,29.0305,-6.2832
LiAgSe2N,27.2356,20.2277,-7.0079
KBaSn,10.6908,11.5063,0.8155
RbNiI,7.0289,11.2314,4.2025
La2Pr6Y3Ho,13.5757,11.3157,-2.26
NaSr(YHg2)2,16.9202,14.6398,-2.2804
Y8HgSe6,30.2626,25.5483,-4.7143
Rb2Ce2NdS6,36.2763,29.2023,-7.074
DyScAgRh,27.6502,24.9405,-2.7097
YMgHg,10.9176,10.8162,-0.1014
Cs2NaYHg,25.4154,22.1466,-3.2688
NaYHg2W,24.4412,21.5906,-2.8506
Ge3SbRu,19.4037,18.3867,-1.017
Ac2La3Sm7,38.3572,35.9931,-2.3641
La3Sm2Tm7,35.064,32.8474,-2.2166
Ca2InNi,8.8826,10.0084,1.1259
RbBeN2,32.5048,27.5305,-4.9743
Ac2RuPt,61.9079,54.5422,-7.3656
Hg2PtW,32.5406,27.5955,-4.9451
Ba2YHg,28.0306,24.3042,-3.7265
InWCl2,17.6851,18.3705,0.6854
Ba2YHg,28.0356,24.3042,-3.7314
Pr4TlAg3,15.4588,14.1543,-1.3045
Ba2YHg,28.19,24.3042,-3.8859
ZnNi5P,12.7137,12.0769,-0.6368
Li4Er9Hg11,12.1156,12.7207,0.6051
HfP3,31.2529,22.4377,-8.8152
Li4La9Hg11,20.4579,15.0287,-5.4292
Li4Er9In11,20.6232,21.1071,0.4839
La2P3Au2,23.2862,21.9641,-1.3221
AcNpS2N,39.9413,37.2138,-2.7275
ZnRe2W,42.891,39.1337,-3.7572
SiTe2Br,28.0958,25.1709,-2.9249
Ta2CuSb,32.3386,33.5954,1.2568
Ba5YHg6,8.7594,8.0282,-0.7312
SiTe3Br,27.2513,24.7,-2.5513
Ce2Al3CdGa4,10.8092,12.2066,1.3975
Cs2SiBr,18.397,17.1476,-1.2493
RbY2TcHg,59.9408,49.0161,-10.9246
EuYHg4,12.7209,11.7448,-0.9762
ZrRuO2F,29.4566,24.374,-5.0826
Ce2PrNb,47.1356,42.3114,-4.8242
Ac2La7Ho3,48.0523,40.4885,-7.5637
Li4Sm9Hg11,10.4862,11.03,0.5438
PrNd3(PuS3)2,44.2216,38.4816,-5.74
InPb2Br,41.3716,39.9781,-1.3935
Li9Ag4Sn11,14.6946,13.9607,-0.734
ScBeGe,15.9072,12.3271,-3.5801
PaNbPb,79.6659,74.4634,-5.2025
TbPrLu2,22.2619,24.3167,2.0548
Si2Sn2Sb,22.8933,16.3878,-6.5054
Y3HoN3,47.9037,41.6354,-6.2683
ReHgIr2,32.1048,36.6035,4.4987
NaLiNbPd2,41.16,34.5246,-6.6354
Te2Rh3Pb2,47.8856,41.4427,-6.4429
PuBrN,27.0267,28.9233,1.8966
Y2HgSe,36.5409,26.2516,-10.2893
Hf2ZnTc,89.5944,68.5451,-21.0493
Ca2CePb,21.8993,23.8834,1.9841
Pm2Dy2Th3,43.2921,46.6768,3.3847
PaTlS4,50.9057,42.3378,-8.5679
Mg11Zn9Cu4,9.1073,6.7966,-2.3107
Mg11Ag9Au4,20.5012,18.5193,-1.9819
Li9Zn4Sn11,10.7667,11.401,0.6343
ReHgAs2,15.0252,17.1005,2.0753
TmLuMnAu,52.4354,49.6158,-2.8196
La7Pm3Tm2,41.5204,33.9651,-7.5553
SrSi2Ru,29.5358,20.6607,-8.8751
NaInTcBr2,32.8619,27.4405,-5.4214
SrSi2Cl,22.4542,15.7138,-6.7404
Sc3(MnNi2)2,42.2767,37.9495,-4.3272
CaSiTe3,33.0394,28.5623,-4.4771
Y2Mg2Cu,14.8789,13.1743,-1.7045
SrSiSe2,41.3608,32.7485,-8.6123
Sr4SiPb,28.0641,24.7481,-3.316
TcMoBr2,29.0663,25.8645,-3.2018
LaTh2NpS4,50.3977,43.4576,-6.9401
Zn2InOsCl,17.6414,18.2441,0.6027
U2PaS3,61.067,55.4423,-5.6247
La7YEr4,41.1037,33.2168,-7.887
SrFeCoSi2,26.3875,18.4221,-7.9653
Na3TmF6,7.422,7.6239,0.2019
Ac2InSb3Rh4,47.1838,39.9769,-7.2069
NaTlC,41.7515,33.5549,-8.1965
SrSi4Cl,20.1665,13.3912,-6.7754
La4Y4Er3,31.9587,27.9998,-3.9589
Sn(SbN)2,29.6846,25.0002,-4.6844
Re2Ir3Rh2,44.1044,43.0213,-1.0831
Mn3Ga2Co7,30.7111,26.2054,-4.5057
Np2Mn,79.995,75.4184,-4.5766
YPuHg4,20.0113,19.3237,-0.6876
TlRuI6,28.7609,28.4033,-0.3576
Mn7Co2Os3,70.2626,59.4163,-10.8463
Ta2Pd3Rh2,31.9799,30.8682,-1.1117
AcYHgSb,39.3711,36.5792,-2.7919
RbTl3Ru,52.5786,49.9795,-2.5991
CaYTa2,41.4118,37.6996,-3.7122
CeEr2P3,14.1625,16.5235,2.361
Re2Mo7W3,27.5278,29.7251,2.1974
YHg(SO4)2,20.2208,17.4531,-2.7676
LuCu4Sb,17.4012,18.0505,0.6493
Zn2FeBr,11.1797,8.3523,-2.8274
Ac(PmNd)6,28.0119,28.931,0.919
AsOsPb2,39.954,41.9547,2.0007
Gd2CdCo,27.2647,26.9952,-0.2695
Sb4RuS,37.1118,31.3747,-5.7371
MnInIr2,44.9348,45.1187,0.1839
BeCrAs2,12.3588,9.5001,-2.8587
Pr6PdPb2,5.1144,7.1088,1.9944
RbSe4S,41.6634,32.7221,-8.9412
Ac3Ga(CN3)2,35.0554,32.056,-2.9994
Be(PRh)2,21.8811,16.3128,-5.5683
Ta3SnPt,45.0838,42.2648,-2.8191
Sb2TeAuBr,44.8683,40.6174,-4.251
YbMnAl4,19.6025,19.2655,-0.337
HgMoS4,35.1329,28.7213,-6.4116
MgMnCdAg,38.1798,32.1291,-6.0507
Th3Pb,62.5791,65.6311,3.052
Ir3(RhW)2,43.7256,43.636,-0.0896
YEr4Te5,32.9625,32.5519,-0.4107
TlTcMo,53.8303,50.5136,-3.3166
ErNpPt4,75.4127,60.1141,-15.2986
Pa2CuTc,58.5375,56.8946,-1.6429
YCu2Rh,26.3467,21.2049,-5.1418
GdRh4Pb,45.9788,37.3591,-8.6197
CrInIr2,30.2849,31.8025,1.5175
K2Sb5Au3,35.278,32.4752,-2.8028
MnCoTcGeSe,44.965,36.5876,-8.3774
CoPIr,27.5999,25.8832,-1.7167
PmSm2Si,16.9802,18.1662,1.1859
Zr5Al3C,54.3024,45.2268,-9.0755
SbIrAu,45.4298,45.8313,0.4015
MnMo2Ru,39.5424,35.4138,-4.1285
NaBr,7.6131,8.915,1.3019
ThMoOs2,44.7159,46.1841,1.4681
Rb(SrSi)2,29.3266,19.768,-9.5586
TaCd2Si,22.7367,23.1024,0.3657
Sc2Sn2S,29.0945,25.3872,-3.7072
Ac3EuPt,61.8715,57.5653,-4.3061
AlBiI3,27.2132,25.8165,-1.3967
LaInO4,25.7017,24.2962,-1.4055
SrAc(CdIn)2,27.277,27.0202,-0.2567
GdGa3Tc,29.2254,27.3355,-1.8899
ScCd3Cu8,14.8555,14.369,-0.4865
ScCdCu,31.083,26.4146,-4.6684
CuSbTe2W,36.1382,33.8937,-2.2445
Sc2SiSn,30.2781,26.3393,-3.9388
LiCaTe2N,18.3162,17.5056,-0.8106
SrReBi2,44.2396,41.7783,-2.4613
K3Si5I12,10.6549,9.4081,-1.2468
TlTcMo2,44.013,43.0606,-0.9524
TmSc2PaSb4,36.8923,33.3303,-3.562
ScCdCu2,24.9835,21.5465,-3.437
LaPb2W,49.3983,47.6502,-1.748
LaPr2Eu,17.7238,16.2881,-1.4357
UCoP2,30.9039,29.7709,-1.133
LiZr2Be,45.3174,40.965,-4.3523
Tb11In9Rh4,27.1377,25.6647,-1.4731
Ba2Na3Sr7,14.1159,13.7134,-0.4025
Ni(P2Rh3)2,29.7363,21.901,-7.8353
PWAu,106.545,92.5786,-13.9664
PPt2W,112.8557,89.4995,-23.3563
MoPtW2,45.4279,43.655,-1.773
Cs4Rb3LiBr8,12.8894,13.0292,0.1398
Cs2LiTcBr6,20.1425,18.8056,-1.3368
AlAsPb2,42.3822,40.4338,-1.9484
Nb7Re2W3,99.2611,83.2867,-15.9744
La6In,48.152,35.341,-12.811
Tl2SbIr,47.6945,47.5993,-0.0952
PWAu4,77.6944,70.9842,-6.7101
Sc2Ga5Pd3,13.1546,11.1146,-2.04
Ag2PW,84.1104,70.3049,-13.8055
P2WSe,81.1165,67.661,-13.4555
As2PW,73.6088,62.7646,-10.8442
P2PtW,91.0943,74.4014,-16.693
CuPW2,79.4149,70.5307,-8.8842
Hf3PSe,96.607,68.8131,-27.7939
SbP2W,80.1444,68.5351,-11.6092
Na3Re5N12,52.5162,45.8169,-6.6993
HfCuReSe2,58.4992,45.9142,-12.585
ZrCu2GeBr,29.6604,26.0103,-3.6502
PIr2W,89.6152,80.9208,-8.6944
Tc2PW,114.5081,96.4433,-18.0647
Re2PW,87.925,80.6524,-7.2727
SbAsW3,36.3122,36.3388,0.0265
Ca2ScPb,20.2695,19.1793,-1.0902
ScAsPb2,42.956,40.1042,-2.8518
CaDyBeN2,17.6681,18.4175,0.7493
Ca2RuPb,19.7481,21.9576,2.2095
RePd8,20.3572,23.0256,2.6683
ScAsPb2,42.7211,40.1042,-2.6169
Cs3BTe,23.4426,23.2099,-0.2328
Ce3(ThRu)2,33.8832,36.7463,2.8632
LaIn,8.1804,10.6771,2.4967
Ca4PW,49.7134,42.5218,-7.1916
Ac2Ho3Ru2,39.092,37.2883,-1.8037
BaPW2,78.1968,67.9592,-10.2376
PW2Au,82.0814,75.0666,-7.0148
HfP2OsW,98.2795,75.8286,-22.4509
LiCrP2W,80.9898,67.0361,-13.9537
LiTb2Tm,21.1493,23.649,2.4997
AcPrIrPt,47.4375,44.0204,-3.4171
PPt2W,113.0363,89.4995,-23.5368
LaBrCl4,12.6033,11.3442,-1.2591
Ac2As3Pt4Au,55.6284,46.1969,-9.4315
PrSm(NpAs2)2,24.0111,26.1907,2.1796
Cu4IrSe,20.1117,20.3616,0.2499
GdTm3,30.3436,32.4108,2.0671
Os3(RuRh)2,49.6012,43.8161,-5.7851
Rb3Tb3Rh2,23.2816,19.8578,-3.4239
PRh2WN,75.6408,60.7394,-14.9015
Ru2Pt2Rh3,63.9995,47.7725,-16.2271
HfRu2N,58.9818,50.2314,-8.7505
ZnGa2B,9.0908,7.809,-1.2819
BaLaMn3,71.4205,56.189,-15.2315
RePWN2,114.2073,98.6727,-15.5345
ScSiBi2Rh,50.0516,43.9291,-6.1225
Ac7Nd3Sm2,48.0727,49.4085,1.3358
SrGe2W,26.733,21.691,-5.042
GePW2Cl,66.0667,57.3943,-8.6724
NaCrCuTe2,21.2499,20.8403,-0.4096
BiSbTe3,45.8754,42.4136,-3.4617
SbPW2,89.1607,78.28,-10.8806
InP2W,74.3158,64.0406,-10.2752
MnTlTe2N,47.1487,42.3395,-4.8092
ZnSbP2W,66.9109,56.3586,-10.5524
AsPWSe2,88.206,74.0932,-14.1128
Cd2CuPW,64.5811,55.7529,-8.8282
Co2PIr,22.2144,23.3358,1.1214
PWSe3,83.9749,68.1503,-15.8245
LiReIr2,31.9022,35.4343,3.5321
P2WAu,81.1597,71.2058,-9.9539
LaSbPb2,50.3574,46.4389,-3.9185
LiReIr2,31.7216,35.4343,3.7127
BeP2WSe,67.0989,55.1167,-11.9823
P3IrW,71.0069,58.7652,-12.2416
LaAlIn3,23.717,21.4875,-2.2295
GeP3W,58.2497,49.4561,-8.7936
RbTa2PW,72.9847,64.031,-8.9537
PaSnS4,51.5647,43.2223,-8.3424
Tb2Pb2N,31.0443,33.685,2.6407
CrPPdW2,68.1038,60.0534,-8.0504
P2PtW,90.954,74.4014,-16.5526
ScNbBi2Rh,61.5691,53.0636,-8.5054
LiMo2Au,19.7133,22.5662,2.8529
NdNbF6,24.4431,22.8821,-1.561
Tc2RhPb,72.094,61.6284,-10.4656
Ag3SnOs,33.0288,29.2075,-3.8212
Ta2AgPb,39.9427,41.3719,1.4291
Na(SnCl2)2,11.0556,10.7929,-0.2627
Li2MoAu,16.2606,17.8206,1.5599
MoRuF3,13.7187,12.5983,-1.1204
In2TcPb,46.8192,43.4728,-3.3464
Hf2TlSe,96.4879,73.0862,-23.4017
InTcPb2,55.0948,51.5607,-3.5341
BaLa4Mn,51.5382,38.5518,-12.9864
TcRhPb2,62.1769,55.8685,-6.3085
Mn4VMo2,80.5577,65.8426,-14.7151
NbCCl,61.3466,48.2154,-13.1312
Ru2Pt2W3,57.8088,48.0018,-9.807
BaAsPb2,28.8938,29.8404,0.9466
NaAsRu,14.8766,13.6774,-1.1992
CaTeCN2,34.2957,29.3696,-4.9262
LiMgScRh,14.1571,12.229,-1.9282
Sc2InS,32.1111,29.554,-2.5571
PmPr5Sm2Tm,4.902,6.9938,2.0917
LaCeAu6,44.4173,43.983,-0.4343
Sc3(GeAu)4,34.9009,30.1625,-4.7384
La2FeW,38.0751,32.5946,-5.4805
Sr2ZnI,13.9647,14.8786,0.9139
LiIr2,22.5035,29.1143,6.6108
Y2Er3Ag2,25.3935,24.8741,-0.5195
ScCd8Ag5,22.5533,20.5754,-1.9779
HfTlSe2,72.1336,53.1229,-19.0107
YErAgPd,31.1924,28.3677,-2.8247
SrLaTl,35.1631,33.5699,-1.5932
AgMoRh2,36.2191,29.2044,-7.0148
HfTlSe2,72.4169,53.1229,-19.294
BaAs2PbSe8,47.6842,40.8818,-6.8025
GdBe2,11.8373,12.772,0.9347
InSi2P,17.4729,14.7685,-2.7044
InSiP2,14.429,13.8334,-0.5956
MnCd(CuSe2)2,40.2839,33.0544,-7.2296
CaCo2Pb,24.917,24.2657,-0.6513
NiRu2Pb,17.0437,21.2321,4.1884
Mn2GaWN,49.1407,42.8548,-6.2859
Tl(BrN)2,14.8306,17.3879,2.5573
LaCrRe2,37.2653,36.359,-0.9064
Cu2AsW,17.2204,18.8535,1.6331
CuAsW,20.2455,22.5585,2.3129
Ac3Tb2NpN6,25.5592,27.6013,2.0421
ScCuW2,38.1118,37.0041,-1.1077
Ca2TbPr,8.8712,9.792,0.9208
Na(FeRu)2,33.1594,23.3124,-9.847
Na(AsRu)2,13.3908,12.3086,-1.0822
TiBiSb2,32.7374,31.9922,-0.7453
ZnSbRh2,37.2908,29.7735,-7.5174
NiRu2I,17.0747,17.1496,0.0749
ScAgW2,61.9636,51.5625,-10.4012
Mg4ZrCu,22.8565,19.0674,-3.7891
Li2Ac3Tl7,45.6287,46.6084,0.9797
BaHfSe4,49.4642,37.3492,-12.115
Li3Zn7Cu2,5.6248,6.456,0.8312
Zr4CuAs,68.7737,58.5659,-10.2078
Ac2Pr2Tm3,30.2579,32.4109,2.153
Y3ErAg,15.1623,16.6517,1.4894
FeCu2GeTe4,33.2432,29.9617,-3.2815
YReNF2,68.6089,61.143,-7.4659
IrPdW2,25.765,33.7376,7.9726
In2Ag2P,18.4766,17.0927,-1.3839
Mo2AsBr,13.4522,17.1923,3.7401
Ac2Pr3Sm2,23.6665,25.476,1.8095
Sc2SeS,37.0034,33.27,-3.7334
Pr3(SmPt)2,30.0005,24.5316,-5.4689
Al2PdI8,19.9789,19.5685,-0.4103
Li7Tl3Cd2,16.0469,16.6314,0.5844
Li7Cu2Ag3,9.1933,8.01,-1.1833
GaNi2Hg,5.0202,7.2326,2.2124
AgAs2Pb,26.2756,26.9184,0.6428
ZrFePb,53.6517,48.4758,-5.1759
InTeAs2,20.6688,21.0302,0.3615
Y2ErTe,24.2488,26.1504,1.9016
Li2Y2ErGa2,11.055,12.8524,1.7974
Ag3PtI,42.4419,32.6929,-9.7489
InBrCl4,8.4372,5.7279,-2.7093
LiLaTeS,31.0834,24.3416,-6.7418
YErNi,65.0819,59.749,-5.3329
CeTlCdAg,31.3779,31.1587,-0.2192
MoAs2P,12.953,13.7318,0.7788
Li3Re,7.4669,9.4149,1.948
Li3Te,7.2523,6.7718,-0.4805
Li3Nd2Sb3,23.2701,21.6451,-1.625
Cs2CrCBr6,24.2679,22.4219,-1.846
InTeAs2,20.859,21.0302,0.1712
CuRu3Pt,31.5635,27.1276,-4.4359
Hf2TeRu,86.3255,65.605,-20.7205
Pr2Nd3Tm2,17.9672,20.3331,2.3659
Ni2Ge2W,14.2204,13.334,-0.8864
Rb3Nb2Cu3S8,41.5078,31.3697,-10.1382
CsGa(AsO4)2,9.5539,9.1924,-0.3615
LaSc2Re,41.0478,32.4986,-8.5492
InTe2As,28.781,27.8238,-0.9572
PaCuIr,38.8107,42.7335,3.9229
CaTlAgN,18.5607,18.5449,-0.0158
Pr2Sm3Tm2,18.1975,20.2246,2.0272
Ba2CoCu,19.4135,14.473,-4.9405
SbIrOs,43.9846,45.4759,1.4912
Ta2Cu,28.0026,28.0882,0.0855
Li7Sn3Hg2,6.7119,6.8591,0.1473
Sc2Be15Ni2,4.2641,3.6248,-0.6393
Yb2Al3Pt,23.2273,21.917,-1.3103
Ac2Tb2Pr3,24.1161,26.2374,2.1213
Np2Pb,64.6409,66.7456,2.1047
TaBe2Pb,29.1628,28.2269,-0.9359
Na3InPb,29.4639,27.077,-2.3869
TaTc3Sb,73.7902,62.8109,-10.9793
CsGa(OsO4)2,14.8712,13.7279,-1.1432
KHg3Pd,0.7904,2.8434,2.053
Na(InPb)2,31.021,31.8303,0.8093
Zn2GaNi5,6.5802,8.5505,1.9703
Li(TeC)2,38.3343,29.233,-9.1013
Co(SnB)2,6.1736,9.3281,3.1545
LiBe3Ni,3.7053,3.2077,-0.4976
Sr2CeCu2S5,33.4398,27.3181,-6.1217
UNbSn,69.426,63.4007,-6.0253
CsNdS14,48.1832,34.4331,-13.7501
CaTcIr2,46.9218,42.612,-4.3097
ScAsBr2,21.9345,17.1029,-4.8316
LaCeS2,38.5822,29.9922,-8.59
Ce3YS4,37.4386,30.5243,-6.9143
RbTlGe,19.9923,20.0195,0.0272
Cs2MnCrS4,41.4561,32.1741,-9.2821
ZnTcN,39.7258,34.0859,-5.6399
ZnGaNi2,6.7969,9.1662,2.3693
ZnTc3N,57.3836,49.15,-8.2337
NaSc3Br,11.9493,10.9534,-0.9959
NaScAs3,22.807,17.1692,-5.6377
ScAsBr,19.7798,14.3937,-5.3861
ThMgZnCo,27.4505,24.3483,-3.1022
Na2ZrRhC,53.5529,40.5616,-12.9912
CeOsO3,5.2155,8.2728,3.0573
Ho6ThSc4,23.6266,25.0164,1.3897
LiCaCr3,15.9813,11.7186,-4.2627
NaReNi2,34.292,25.2459,-9.0461
Tb2Co4C,20.9689,21.098,0.1292
NaCaGe2,11.8083,12.1522,0.3439
Na3Th(ScS3)2,45.604,37.3732,-8.2308
LiCaCr2,16.2405,13.5668,-2.6737
YbGaAg,15.6435,16.9673,1.3238
LiScCr,15.955,12.915,-3.04
TeMoRu3,24.955,24.2659,-0.6891
Ti2Si2Os,7.2467,9.416,2.1693
CdAs4Ru,16.6003,14.1349,-2.4654
CuWAu3,38.7249,39.9413,1.2163
NaLa(AsPt)2,45.0507,34.578,-10.4727
AgAs4Ru,18.6717,14.9623,-3.7094
La(TbTl4)3,46.0569,46.0757,0.0188
Li2CaCr,13.5092,10.7958,-2.7134
La3PrPb12,48.3886,46.4214,-1.9672
Ac2TbCe,45.3574,47.853,2.4956
Fe4AsPt,30.9142,24.9365,-5.9777
AcTbCe,38.7993,41.442,2.6427
Y3Er(ScTe3)2,27.9021,26.5521,-1.3501
CuW2Au,33.0935,36.7648,3.6713
ScAgW,69.6049,53.797,-15.8079
Sr3AcSb2P,27.3298,26.4579,-0.872
YbMgN2,21.1789,20.4623,-0.7167
Ta2BePb,34.8811,37.0459,2.1648
TaBe2Pb,28.7315,28.2269,-0.5046
SrLaSn2,26.0589,24.5141,-1.5448
Ac2ZnSn3Pd4,29.7534,27.8157,-1.9377
TiAlP,18.9563,16.9409,-2.0154
In2AgSb,26.0647,24.6893,-1.3754
Ac2Zn3Sn4Pd,25.9351,25.9768,0.0417
InSn2Cl,12.9043,14.7923,1.888
In(AgSb)3,32.8177,27.1486,-5.6691
CuTc2Te,52.6538,45.8085,-6.8453
NaNiBr,10.793,10.7049,-0.0881
TaBePb2,39.1356,39.7029,0.5673
NaNiI,14.6071,15.8468,1.2397
YErSb2,32.2199,31.504,-0.7159
TaBePb2,38.8331,39.7029,0.8698
V5Ga5Cu,63.6238,49.4875,-14.1363
Tb9Pm11Th4,32.4557,33.7347,1.279
Pm11Sm4Er9,26.6014,27.9277,1.3264
Be2Ni2Se,7.6267,8.8267,1.2
Al4SiSe3,26.172,21.1539,-5.0181
VGa3Cu,34.0106,27.2967,-6.714
Ac3SbAs2Pt9,70.3007,54.3001,-16.0007
CuTe,0.0809,4.5812,4.5004
TcAs2Pb,41.501,39.1751,-2.3259
InAgSb2,35.3609,31.015,-4.3458
Sc3AuC,3.7857,7.9688,4.1832
BaPrCu2,3.7596,4.014,0.2544
Ca2TiIr2,25.6497,20.1719,-5.4779
NaReNi,43.8635,30.5745,-13.289
ReSiCl2,16.657,15.8949,-0.7621
Rb2In3Ag2,17.9093,16.3056,-1.6037
TaNi2Hg,12.4848,15.8027,3.318
Rb2Bi2Au3,36.2045,36.8559,0.6514
Li3Ga7,2.9113,4.132,1.2207
NaSr3Pd,8.8599,11.0988,2.2389
LaAlPb,35.5731,33.2305,-2.3427
Ga2FeTe,17.8063,15.6801,-2.1262
Cs2Rb2Tl3,29.1938,29.3565,0.1627
Ac3ZnP2Pt9,66.8257,51.586,-15.2397
Eu2(Zn2Ge)3,12.9956,12.8301,-0.1655
Lu2PBr,19.2872,21.5321,2.2449
LiPmS2,33.1491,27.0315,-6.1177
BaAlCo,20.8763,13.4591,-7.4172
Mn(Nb3Bi)2,117.7208,96.097,-21.6238
NaScIrS2,46.0797,38.872,-7.2077
Tb4Pm9Hg11,13.2078,14.2151,1.0072
NaOs2Pb,36.207,39.8041,3.597
Pm9Er11Tm4,27.9114,29.2586,1.3472
Pm9Ho4Hg11,13.4931,14.5072,1.014
Pm6Ho2Tm,21.7104,23.7248,2.0144
Ac4Pr11Ho9,19.2487,20.4918,1.243
TbGd2I,26.7319,28.8143,2.0824
Ac2ZnSn3Pt4,54.8252,45.5084,-9.3168
BaAl5,5.1587,5.2715,0.1128
Th2PBr,35.641,38.3577,2.7168
Pm4Pr11Tm9,13.4953,14.7815,1.2863
Tb9Pr11Dy4,12.3994,13.6938,1.2945
Na(IrOs)2,39.5915,41.5257,1.9342
Cs3Sm(HoS3)2,39.4458,33.0059,-6.4399
Pr4Er11Tm9,24.6909,25.7487,1.0578
Pr4Dy11Er9,22.8275,24.185,1.3574
Pr4Sm11Ho9,21.3465,22.6712,1.3247
P2S,22.5805,22.8797,0.2992
Pr4Er9Tm11,24.8029,25.8086,1.0056
Pb2SeN2,30.9644,29.8953,-1.0691
PuNi,39.9267,41.6657,1.739
Y2Er2Sn7,28.5729,25.4146,-3.1583
PrBi2Os,30.2429,34.6172,4.3742
Pm9Pr11Dy4,11.721,12.9718,1.2507
InGaCo3S2,22.5505,19.7139,-2.8366
Tb3Pm(PuS2)4,51.0356,44.6349,-6.4007
Rb3(AgHg)2,9.5758,7.4744,-2.1014
KYPb3,37.5036,38.0659,0.5623
Pr2Sm6Y3Er,18.1405,19.1767,1.0362
Pa6MnTe3S2,61.0773,57.4499,-3.6274
Mg5(InPb)2,17.5044,18.3282,0.8238
Ba3AcTe4,27.4191,27.3417,-0.0774
Ba2Ge2Ru2C,16.7843,16.6377,-0.1466
Ba2CrGeRu,11.0155,11.0312,0.0158
ScAsPd2,23.0735,20.9983,-2.0752
AlTlCo,37.1031,30.288,-6.8151
KSrHoI6,16.4265,17.6743,1.2478
Pm3Zn2Cd3,18.1127,19.5271,1.4144
BeIr2O,16.4928,21.3856,4.8927
BeWO2,16.5318,17.2876,0.7558
LuTlNi4,17.9001,20.547,2.6468
NbSbBr3,51.169,42.3445,-8.8245
LiPrYEr,10.6447,12.6559,2.0112
Tc2NiIr,50.8227,47.4334,-3.3893
GdAl5Co,13.8502,11.8514,-1.9988
BaAl2Co,25.2854,16.256,-9.0295
SrGa6Fe,13.4934,13.0624,-0.431
Tb6SmSc4,18.9601,20.6945,1.7344
Tb2Sm7Sc,24.0045,25.3062,1.3017
Tm4CuAgAu2,31.3092,32.6733,1.3641
InWAu2,38.5413,42.1184,3.5771
Gd2TmCu,23.9357,26.5945,2.6588
ReSb2Pt,55.2904,47.1341,-8.1563
Tm(CuAs)2,12.2597,14.3621,2.1024
ReSiI2,20.3994,21.8417,1.4423
RbV2AgBr8,31.0848,25.0155,-6.0693
TmCu2Ag,18.7563,18.9448,0.1886
CrIn(SnCl4)2,11.0419,11.3605,0.3186
TlTePt2,67.9606,54.8514,-13.1091
CrIn(PbCl4)2,16.2947,16.4997,0.205
KGaAg2,18.2129,15.8599,-2.353
KNa2Pb,28.4036,26.3642,-2.0393
SnRu2Rh,31.1933,28.0579,-3.1354
HfNb2S,111.9547,86.8101,-25.1446
Ac2Pd5PtAu2,34.4103,33.9559,-0.4544
ThNbRu2,59.7913,56.1167,-3.6746
ZrCSe2Br,54.0616,42.2804,-11.7812
Cu4IrAu,19.7896,22.0942,2.3046
TmCuAu,27.6644,30.1023,2.4379
ReOsPt2,65.59,55.5292,-10.0608
Cs2BiN2,21.6504,22.5575,0.9071
Ac(Tb3Th)2,39.681,42.7959,3.1149
AcSmS14,54.8703,40.8526,-14.0177
TbCe3(PmS3)2,38.9408,33.164,-5.7767
AcSmS14,54.8753,40.8526,-14.0227
TaSi2Au,28.3707,27.2081,-1.1625
TaCu3,16.1315,17.5206,1.3891
ReOsPt3,72.0893,56.9205,-15.1688
YPtO3,12.6505,11.6213,-1.0293
Tm2CuAg,24.5361,25.2049,0.6689
ReOs2Pt,53.7996,51.7855,-2.0142
ReOs2Pt,53.7153,51.7855,-1.9298
Rb2Tl2Pb3,37.5352,38.258,0.7227
Tm2MnCu2,29.8607,27.9398,-1.9209
Ta3SiAu,36.3261,37.2895,0.9634
TmLuBeCu,21.8795,22.1715,0.2919
Tm2CuAu,28.2526,30.9038,2.6513
Cs2Rb3Cd2,13.2091,13.168,-0.0411
EuTmCu2,17.9512,19.9286,1.9774
Ba3(TlRh)2,28.2812,24.9535,-3.3276
AcCdSi2Pt5,61.6378,46.3484,-15.2895
TmCuP2,9.126,10.6583,1.5322
TmLuCu2,19.128,21.6467,2.5187
TbSmSc2,15.4856,18.6274,3.1418
Yb3Fe2(CuP2)2,26.2602,23.3918,-2.8685
Rb(SbBr4)2,21.7416,19.8401,-1.9015
NbRhCl2,50.0987,39.4861,-10.6126
NbNiPd3,41.5061,36.0334,-5.4726
Na3BrN,16.9505,14.6069,-2.3436
Tc2PbAu,72.0149,64.7516,-7.2633
Ta2NiAs,32.0711,32.9184,0.8473
TaNi2As,24.2151,23.1001,-1.115
Sc2SnC,23.9862,19.259,-4.7272
Ta2NiAs2,19.4998,20.8048,1.305
NaMnTc2,79.5804,68.8787,-10.7017
NbSe2Cl,60.025,49.5286,-10.4964
RbGaTe2,23.4032,23.0132,-0.39
Y2TaNiAs,67.945,59.3893,-8.5557