Formula,E_hull_DFT (eV/atom),E_hull_ML (eV/atom),Delta (ML - DFT)
Be(InC)2,29.714,23.7167,-5.9973
YHoTiAl,29.7871,25.8064,-3.9807
MgTi2VH8,12.4534,10.8463,-1.6071
MnMo2RuC,43.7225,37.7382,-5.9843
RbReSn2Bi,29.8603,30.3846,0.5243
Be(InC)2,33.0854,23.7167,-9.3687
Hg2IrAu,22.9012,24.511,1.6098
Y2HoAl2Pd5,20.382,19.0993,-1.2827
Ac2CdH6Pt,23.4645,21.6887,-1.7759
ReSb2TeOs,44.3682,40.3077,-4.0605
Tb3Sc5S12,27.3305,21.8962,-5.4343
K2CdCu2,9.5971,9.9999,0.4028
LaYHoAl,39.3073,31.4416,-7.8657
RePI3,39.9061,33.9244,-5.9817
CaSc(H3Ir)2,10.5971,6.9994,-3.5977
Ac2Th(H4Pt)3,25.5482,22.0297,-3.5185
BeTlCd2,23.6862,23.7827,0.0965
Cs6TeO2,12.2949,13.4338,1.1389
SbRh2O,37.1915,30.5801,-6.6114
Cs2RuO3,3.3469,2.9365,-0.4104
In2IrI,27.2535,28.3062,1.0527
YMo2W,33.7888,30.8155,-2.9733
Cd2SiGe2,11.6767,11.5423,-0.1344
SiOs2Cl,26.5494,27.5221,0.9727
YMoW2,39.5548,36.0417,-3.5131
AlTl2Sb,37.5092,35.9372,-1.572
AuBr2Cl,18.7946,18.7569,-0.0377
BeTlCd,25.01,25.1445,0.1345
CrHg3,0.1349,0.2106,0.0757
CaGaN2,0.0,2.3177,2.3177
YMoW2,39.6965,36.0417,-3.6547
CdPt2O,45.42,33.2845,-12.1355
CsNa3(SO4)2,0.0,0.2966,0.2966
Ac2Pt,72.9752,65.5578,-7.4174
La2Te(HI)2,26.3575,23.094,-3.2636
Be2TlCd,19.7443,19.6585,-0.0858
CdPbBr2,30.6142,28.2334,-2.3808
BeIrBr,13.2093,16.5443,3.3349
CaYHoAl,27.6629,24.1945,-3.4684
Ag2RuSe,28.7601,24.9563,-3.8039
SmNp(AgO3)2,7.362,9.4634,2.1014
Ac3(AlPt)4,50.1918,41.7507,-8.4411
V2SbOs,86.2787,71.2738,-15.0049
IrPtAu2,57.165,52.3864,-4.7786
ZrCu2Cl,29.4386,25.2188,-4.2198
Eu2PdRh,30.3691,28.0151,-2.354
CaSb2IrW,43.6944,35.0101,-8.6843
LaZr2ScFe,67.5912,55.0191,-12.5721
DySi3Ru,12.963,10.8259,-2.1372
YMoW2,39.6261,36.0417,-3.5843
SiPbCl,24.2705,22.9986,-1.2719
TaAlPt3,62.5102,46.0945,-16.4157
BaSrAu4,33.0515,34.5093,1.4578
Zn2CdRe,48.0943,38.0437,-10.0506
Ba4SrHg,2.0229,3.3553,1.3324
AcInPt,46.5606,41.8466,-4.7141
SrGe3Bi,19.8858,20.3699,0.4842
Ac3As2(HPt2)2,51.3388,42.097,-9.2418
HfFeSb,52.2864,38.0792,-14.2072
Cd(AuI2)2,29.1865,30.0653,0.8789
EuSnPd2,23.3582,23.2425,-0.1157
Y5(NiGe)2,54.9844,46.3308,-8.6536
YMo2W,33.685,30.8155,-2.8695
BeHgC,16.7346,13.0841,-3.6505
NaGeB,12.377,11.627,-0.7499
Y2MoW,43.371,28.8151,-14.5559
CsLaTi3,19.8201,17.6084,-2.2118
NdDy6Y3Ho2,23.9424,25.5774,1.635
Hf2Sb2P,68.6408,49.0647,-19.5761
Y2MoW,43.6236,28.8151,-14.8085
Te(AsRh)2,26.3825,22.6155,-3.767
Rb2NiCBr6,13.7135,11.9572,-1.7563
ErTiGa2,12.4401,15.395,2.9549
Ac2La2Pt3,64.3602,50.1072,-14.253
CeYCSe,45.0773,38.3912,-6.686
LuMgSnRu,18.3865,21.2582,2.8716
MnAgTe2,53.7573,44.3767,-9.3806
LiLaYIn,22.6424,19.0634,-3.579
MnInTe2,50.6902,44.6179,-6.0724
FeTeOs2,41.5104,38.9414,-2.5689
Pr4Sm2Y,8.1362,10.0532,1.917
InRe2Rh,37.5799,37.038,-0.5418
TaBi3C,53.981,50.5175,-3.4636
Be2TlMo,21.2019,19.4583,-1.7436
Mn2Te4Rh,59.3865,48.897,-10.4895
MnTe3Ir,54.8683,48.5915,-6.2768
KSrBi2,33.2414,32.8716,-0.3699
Be2TlMo,21.3061,19.4583,-1.8478
Na2Zn2Ag5Pb,25.0307,20.9269,-4.1038
BeTlMo2,26.145,24.6831,-1.4618
Y2Ho4Al,29.186,29.0999,-0.0861
Si(IO)2,40.8316,32.3463,-8.4853
MnTc3Te,85.7411,69.8688,-15.8723
Pr2TmMg,6.0917,8.6919,2.6002
Cs3NdV2O8,23.882,20.6,-3.282
BeTl2Mo,33.3007,31.8291,-1.4716
BeTl2Mo,33.2284,31.8291,-1.3993
YMnIr,43.1569,40.3282,-2.8287
Cs2MnGeTe4,40.1837,36.7855,-3.3983
Y6CoCuBi2,33.0907,29.7635,-3.3272
CsMg14Mn,10.2033,9.2081,-0.9952
YMoW2,39.828,36.0417,-3.7863
Cs2Mn(CuTe2)2,36.1714,32.7579,-3.4135
ReTeAu2,44.8862,45.7576,0.8714
BaAcHPt,34.1312,28.2271,-5.904
PdRh2,32.1939,26.0684,-6.1255
PrDy2F11,1.5213,3.3488,1.8274
Mg14BiMo,6.9003,7.5951,0.6948
AcNdYHo,32.9376,35.8749,2.9373
Pr2MnGa,29.1631,22.5874,-6.5757
AcNd(H3Pt)2,21.6654,17.1394,-4.5261
LiAcYHo,27.0513,29.2853,2.234
InRe2Rh,37.6468,37.038,-0.6088
ThCoCu,40.6162,38.0169,-2.5994
Pr2ErF11,-0.0,1.1263,1.1263
YCrRu2,26.135,25.3926,-0.7423
ScNb2,87.5283,74.0713,-13.457
AlCuNi6,6.6552,8.1731,1.5179
LiP2RuS,22.0347,19.8848,-2.1499
Sm2Dy2YHo2,25.1773,27.5984,2.4211
Th2CoCu,51.8673,48.8081,-3.0592
PrEr2F11,2.0807,3.639,1.5584
AcYHoIn,32.7018,34.2148,1.513
MnCuSb2Te,48.2243,38.7011,-9.5231
LiP2RuS,21.2625,19.8848,-1.3777
NaErGa4,14.2508,14.9391,0.6883
CaY2Zn,17.0238,13.2813,-3.7425
EuLuPdRu,23.5406,26.4789,2.9382
Na(InI2)2,21.8092,21.3095,-0.4997
MnNbSb2Te,75.3397,60.285,-15.0547
CaY5Zn4,15.422,12.6904,-2.7316
CdRuBr,22.8088,20.7439,-2.0649
MnAgSbTe2,52.4244,42.4916,-9.9328
EuTmSnPd,26.6421,26.3876,-0.2545
Mg2Al12Ni7,3.6008,5.1823,1.5815
TbCeMn,50.4634,44.4291,-6.0343
Ta2Be3,14.1998,17.0013,2.8015
Ca2MnTe,37.6623,31.6243,-6.038
SrCe2YSe4,33.029,28.9072,-4.1218
LiTaPb,30.943,33.2263,2.2832
GdThZnPb,38.6583,41.3229,2.6646
Mn3SbTe,77.9448,60.4171,-17.5277
Cd3InSb,24.8356,23.0576,-1.7781
CaY2Zn,17.2094,13.2813,-3.928
Y2ErCu4,26.7553,21.9623,-4.793
RbMnAgTe2,38.6668,32.5523,-6.1145
Ba2SrNi,9.5628,8.5603,-1.0025
AcZnH7Pt2,22.6506,18.7333,-3.9173
Mn2TeRh,72.8954,58.1207,-14.7747
RbMg14W,5.6733,5.7914,0.118
Sr2GaBi,21.9441,23.6575,1.7135
MnSbTe2,57.2719,47.9093,-9.3626
MnAgTe2,54.0014,44.3767,-9.6248
AcGaH6Pt,17.9434,15.1936,-2.7498
Cu2ReTe,24.5491,25.756,1.2069
DyErCdAg,26.5094,26.4058,-0.1036
LiTePb2,36.6632,37.0892,0.426
Rb2Y2RuO6,24.9405,21.7928,-3.1477
CuRe2Te,32.8886,35.5449,2.6563
Mn2TeBr,63.3881,50.4121,-12.976
CaY3Zn4,10.1598,8.7793,-1.3805
PaFeSn,41.3663,39.5387,-1.8276
MnIn2Te,45.5567,39.2805,-6.2762
MnTe2Br,48.5635,41.9143,-6.6493
CdReTe2,65.3222,54.5625,-10.7596
LiTe2Pb,33.9952,33.6563,-0.3389
LaPtBr2,41.7145,30.0866,-11.6279
BaMnTe,46.9516,39.7616,-7.19
TaCdSe2,37.7709,35.3626,-2.4083
Mg14GaSi,3.8299,4.238,0.4081
AcInH6Pt,19.1912,16.4771,-2.7141
Sb2TeCBr,49.2681,39.7294,-9.5387
YTlW2,46.083,40.1824,-5.9007
ZrAlTl2,50.8279,47.7866,-3.0413
AlHgW,14.32,17.3815,3.0615
YZn2In,14.113,13.994,-0.1191
TcSb3I,50.4167,40.7342,-9.6825
AcCr2H7Pt,15.6282,13.964,-1.6642
YTl2W,48.9458,41.8009,-7.1449
ZrAl2Tl,38.7234,35.9334,-2.79
K2TaInSe5,30.2401,26.9438,-3.2963
MnAlTe2,46.9038,40.4843,-6.4195
LuGaIr2,24.6956,30.0477,5.3522
Zr2AlTl,62.5433,55.3098,-7.2335
Al2HgW,11.8241,13.7948,1.9707
Cs3AuO2,29.5848,25.2002,-4.3846
TbFe6,4.3781,6.1848,1.8067
Zr2AlTl,62.3261,55.3098,-7.0163
BaMn2AgTe4,44.5427,36.9067,-7.636
Zr2AlTl,62.4101,55.3098,-7.1004
Mn2TeIr,71.3239,59.5899,-11.734
NpTlPd2,39.0487,41.0892,2.0405
SrMn2Te,63.8867,51.2765,-12.6102
CsErPO4F,0.0,0.0,0.0
TaMn2Te,69.8073,58.5608,-11.2465
AcAl(H4Pt)2,20.4758,17.2289,-3.2469
Zr2TaCr,86.1983,66.8877,-19.3106
SbTeMo2,31.7439,29.335,-2.4089
NbCo3Si,36.5173,30.5334,-5.9838
Hf5Al3H,73.0413,51.2609,-21.7803
Mn2HgIr,60.6814,50.0223,-10.6591
TaMoSe2,37.4102,34.8035,-2.6067
Mn2NbTe,95.9155,77.3175,-18.598
TaSb2TeAs,36.3972,32.173,-4.2242
LiTbLuSc,16.9101,19.2298,2.3197
TmMn6InSn5,57.6316,46.8277,-10.8039
Tl(CdAu)2,34.4129,36.1111,1.6981
KRe2Te,34.9904,35.9368,0.9464
ZrPtBr2,54.0941,41.8836,-12.2105
KBeTc2,51.1617,42.4507,-8.711
DyErCdIn,23.5438,26.0792,2.5354
Y2Zn2In,11.9803,11.4345,-0.5458
Ca2YZn2,10.0847,8.0534,-2.0313
Ca(YZn2)2,12.972,11.3761,-1.596
SiSbCl,21.5757,16.9095,-4.6662
GaSiOs2,20.002,23.0228,3.0208
Y2ZnIn6,19.1248,18.1688,-0.956
Sr2Sm2Rh3,31.5535,27.2978,-4.2557
LuIn2Ag,25.8585,25.3421,-0.5163
MnSiAu2,52.256,45.3299,-6.9261
Rb2Sn2Sb,14.9231,13.8852,-1.0379
MnSiAu2,52.3792,45.3299,-7.0493
TaInRh,35.6541,33.2588,-2.3952
KTl2ZnPd,27.7277,28.2376,0.5099
Mn4SiAu,76.9543,60.4248,-16.5295
CuSiMo,28.3605,19.6687,-8.6918
ScPa3,51.9033,54.9686,3.0653
ZrPt2Br,72.4082,55.8279,-16.5803
ZnReSn2Os,36.9687,31.7362,-5.2325
Pm2TmPd,24.1666,27.1931,3.0266
K(Pr3Se4)2,22.8915,18.4448,-4.4466
CePmHf,64.6433,52.6617,-11.9816
Al2AgSb,20.7334,18.3196,-2.4138
LiZrPb,40.3638,38.8996,-1.4642
La6PrY2Ho,36.6244,26.5374,-10.087
Zr2Ga2Au,45.6335,41.6354,-3.9981
CaBiPS2,46.4805,37.1299,-9.3506
BaPa2AgO7,12.9461,13.6596,0.7135
BaBeN2,16.8591,14.6438,-2.2153
DyEr2Cd,26.25,28.9573,2.7072
Pr3Ag(Ge3Pd)2,9.6043,9.3025,-0.3018
PmScTlPd,28.2891,28.8951,0.606
Sr2TlTePd,26.8293,27.5259,0.6965
Sc2Pa,25.9251,29.7808,3.8557
SiRuCl,16.3768,13.8447,-2.5321
Gd2AgPb,35.6883,36.0317,0.3434
RbTaBi2,32.6108,34.9935,2.3826
Tl2AgRu,38.2319,37.2267,-1.0052
TaSbSe2,44.482,37.913,-6.569
GdAgPb2,41.1443,40.5998,-0.5445
FeRu3Cl,26.2399,21.1282,-5.1117
Tl2Cr2Pb,30.2746,30.7554,0.4808
ZnAsP2S,24.8705,22.4308,-2.4397
SrCaC2,37.8521,26.9963,-10.8558
AcCo2H8Pt,13.759,12.6462,-1.1128
CsMnTe2,46.906,41.6727,-5.2334
AcTa(H4Pt)2,23.2755,20.0055,-3.27
Ga3IrC,26.5729,23.4341,-3.1388
AcV(H3Pt)2,36.8895,29.7684,-7.1211
AcZr(H3Pt)2,33.7199,27.941,-5.7788
YCr,14.6324,11.6934,-2.939
PrNdSbH,10.3057,12.5191,2.2135
NdDyErCd,24.9954,27.637,2.6417
Na3Al5F12,7.1214,7.1165,-0.0049
Sr3(ZnSi)2,24.4746,17.8722,-6.6024
NaTmSe2,36.2239,31.7096,-4.5142
Pr2MgF,4.6358,6.1033,1.4675
BeAsI2,24.5103,22.9352,-1.5751
SiRu2Cl,19.6254,14.8511,-4.7743
YSiNi4,32.6953,28.8794,-3.816
Er3In3Ir2,28.7729,30.6159,1.843
Tl2ZnPdI,30.4485,31.1408,0.6924
Sm8P3SeS4,29.129,28.8282,-0.3008
YZrAlF2,40.9804,33.6026,-7.3778
Zn2HgPb,17.1344,18.0382,0.9038
BeTl2PdPb,37.2489,36.9084,-0.3405
AcCu(H3Pt)2,27.4471,22.7948,-4.6523
Ce3Ir7Ru2,36.6411,37.036,0.3948
MnZnTe,49.9369,41.5948,-8.3421
Cs3Tl7Rh2,43.8454,42.111,-1.7343
Tb6Pm2YHo,20.5261,23.27,2.7439
Nd2YHoEr6,22.1984,24.9322,2.7338
NdSm2YHo6,21.2521,24.0012,2.7491
CaMnTe2,46.6293,39.8995,-6.7297
Y2Cr2In,39.0023,30.486,-8.5163
Y2ZrTiCu,52.284,40.0276,-12.2564
BaMnSbTe2,45.1821,37.5697,-7.6124
Y2GaAu,20.713,22.4702,1.7572
ZnCd3Sb,22.4609,20.5419,-1.9191
RbTa2Bi,28.949,32.792,3.843
Al2(SO4)3,2.7429,3.2345,0.4916
Pr3Bi2Ir,22.4136,24.5728,2.1592
Rb3Y3CrSe8,33.4923,27.1501,-6.3422
Pr4AlTl,1.4718,4.2643,2.7925
TlOsPd2I,31.8688,32.7171,0.8483
SmYOs,35.1295,33.1055,-2.024
Sc2B,3.5452,6.6721,3.1269
YTlPb2,42.1694,44.4916,2.3222
Tl2NiPd2,24.7666,27.1736,2.407
BaTaCo2,36.0683,25.7098,-10.3585
YTl2Pb,41.9308,43.8215,1.8907
TaPt4W,63.0642,48.7483,-14.3159
K2NaBi2,28.6908,28.7704,0.0796
BaTaCo2,36.6002,25.7098,-10.8904
Er3(InIr)4,30.5324,32.9988,2.4663
Cu2Ni,6.5715,9.3834,2.812
Y(TlPb)2,44.1119,45.7096,1.5976
Er3HgAu4,29.7972,32.5368,2.7396
CaTb3(Sm3Y)2,23.5796,23.8819,0.3023
KMg6Cu,6.9224,6.0982,-0.8242
MgAsPS2,33.6059,25.1995,-8.4063
Y2CrIn,35.8313,30.3742,-5.4571
YGaAu,13.0647,18.518,5.4533
Ta2InRh,35.6913,34.7792,-0.9121
SbPtBr2,47.5032,39.5083,-7.9949
LiTbC,24.7189,22.0458,-2.6731
Ac3Pt2Au3,63.3691,57.7256,-5.6435
Mg15Bi,5.8103,6.5272,0.717
Mg15Mo,3.6673,4.3623,0.695
SrScAl,4.0868,6.9316,2.8448
K2BaHf,40.4323,29.7285,-10.7037
Pu2Bi3,53.0412,55.9628,2.9216
Fe3SbC,32.0251,23.9569,-8.0682
TaIrSe2,44.3421,41.281,-3.0611
YbCo,7.719,14.6103,6.8913
Ac2BrO2,26.2446,27.9382,1.6937
TlAgSbPd2,34.1036,30.228,-3.8756
CdReI3,50.0113,40.774,-9.2374
Tl(SbPd)2,31.6284,29.1102,-2.5183
Cs2PIrBr6,18.4667,17.5109,-0.9559
YbCo,20.8725,14.6103,-6.2622
ScTlCr,32.4481,29.5682,-2.8799
TlInTe,37.4839,38.3317,0.8478
CrRhC,33.6582,29.6449,-4.0132
Pa3Cr2Si7,26.9278,24.3,-2.6278
Be3CdI,18.5953,18.0812,-0.5141
Sr4Zn2Au,16.4365,17.4848,1.0483
TaTcNi2,35.2662,34.2616,-1.0046
InTeRh,36.9187,32.7671,-4.1516
NdYHoBiO7,11.2554,11.7436,0.4882
Pr2BrO2,7.5597,3.9651,-3.5946
Ba2CuSe2,15.8956,13.7632,-2.1324
Pr3(YRu)2,32.6824,27.5922,-5.0902
InTeRh,37.3545,32.7671,-4.5874
InGaSb,21.0627,19.6285,-1.4342
Zr2PF,51.0023,43.9603,-7.0421
Mn2InAgTe4,52.1216,44.4169,-7.7047
NaHoSn4,22.4501,22.6232,0.1731
InGaSb,17.8718,19.6285,1.7567
Na(NpSi)2,31.3347,31.1944,-0.1403
CdGaSbRu2,23.0656,21.3027,-1.7629
Rb3AgBr4,6.1777,5.4764,-0.7013
TlAsPdAu,27.424,30.366,2.942
CsRb2Ag,13.6072,11.4348,-2.1724
Rb4AgBr5,8.2546,7.6367,-0.6179
TlPdRu3,25.8269,27.4203,1.5934
Nd3Tm7Sc2,25.1276,27.0584,1.9308
InTe2Rh,38.3714,33.9561,-4.4153
Ac2AlH6Pt,21.8839,20.6147,-1.2692
RbBaNa2Ga,13.8079,10.3189,-3.489
Ag2P,22.3231,17.9497,-4.3734
BaMn2Al5,31.3246,24.4913,-6.8333
LaGdO,46.0358,43.8658,-2.17
Sc2CdSn,15.8939,15.8784,-0.0155
SrGa3Bi,18.9432,20.1917,1.2485
LaTlSnPd,37.6881,32.841,-4.8471
Cs2TmPu(AsO4)3,0.0,0.0,0.0
Li2LaAu,24.747,21.6343,-3.1127
Mg3CuW,15.5238,14.1845,-1.3392
CaSb2Os,35.6634,31.2987,-4.3647
CaMg2TiH8,2.9305,3.7251,0.7946
Mg3CuW,16.0535,14.1845,-1.8689
Sb2TeIr,43.8245,41.0934,-2.7311
Sb2TeIr,43.947,41.0934,-2.8536
SbTe2IrPb,45.3318,42.8234,-2.5084
CuSbAs2Se,36.9006,32.2424,-4.6583
ZnCu(H3Ir)2,10.4346,10.2144,-0.2202
PrFe,0.0,0.0,0.0
Mo2P2Os,20.4115,16.8766,-3.5349
Na2Cd4InSn3,20.7339,20.4124,-0.3215
P2BrCl,8.9156,8.0512,-0.8644
ScIn,1.78,4.6592,2.8792
NdTlZnPd,24.7921,27.1057,2.3137
HoTmTlPd,31.3275,34.1683,2.8407
NbAl2Sb,43.4393,37.9876,-5.4517
NaPt2Se3,52.8983,40.6324,-12.2659
AgHgBr,14.1027,12.3997,-1.703
YVTe2I,50.3737,43.3152,-7.0584
ScSb,0.4745,20.288,19.8135
Tm2Cu2Si3,12.1503,11.9377,-0.2126
BaZrGe2H,24.2396,21.1685,-3.0711
Na3NbPb,54.8173,46.1187,-8.6987
FeSnBi2,28.3456,31.2856,2.94
MoP2Os,24.2605,22.4826,-1.7779
Ti(TlPd)2,23.7907,26.1353,2.3446
Cs2AgSb,28.2223,24.7492,-3.4732
CrTc3I,63.5407,52.4908,-11.05
Mg3Si4,7.152,5.1773,-1.9747
OsRuBr2,26.4353,25.5571,-0.8782
TaWSe2,43.4304,40.8647,-2.5657
Mg6NbCu,23.0999,19.0128,-4.0871
TlIn2Ag,28.0306,27.6435,-0.3872
OsRu2Br,27.6583,26.9614,-0.6969
Lu4NiH2,15.7179,18.1183,2.4003
Gd2ThCd,36.041,38.9406,2.8996
NaScCd2,16.8826,16.8869,0.0042
Os2RuBr,33.6267,34.6372,1.0105
YSc2Ag,0.0,0.2797,0.2797
Ca(CrH4)2,5.4865,4.9575,-0.5289
K(CdAu)2,26.6758,27.8332,1.1574
NaSc2Ta,72.504,59.9841,-12.5199
NaTaCd3,25.073,24.7486,-0.3244
NaTaCd,23.4089,26.0491,2.6401
Na3ScCd,20.4841,17.2243,-3.2598
CrAsPd2,8.5586,10.6573,2.0987
Er3ThAu4,42.1354,44.3961,2.2607
SrTaGa2Si,43.8593,32.7061,-11.1532
Tl2SnPd,34.6805,34.1489,-0.5316
Pm3ZnCo,23.213,20.0181,-3.1949
P2WCl,65.5968,55.9897,-9.6071
Mg3Si4,7.045,5.1773,-1.8677
Mg3Si4,7.0568,5.1773,-1.8795
Mg3Si4,7.0517,5.1773,-1.8744
Ac3HPtPb,50.3071,48.2569,-2.0502
Sr2MgTlP,16.6476,17.4757,0.8281
Tl2CdAu2,40.8803,42.0833,1.203
RbCrTc3,61.0651,50.5218,-10.5433
Np2Si3Ge2,21.8245,21.9498,0.1253
ZrAlSe2,48.9611,41.6326,-7.3285
Ac2LuTh,57.304,60.1711,2.8672
NaTiSb2I,32.8568,26.4426,-6.4142
NaAcCdIr,37.8573,38.5894,0.7321
TlCd2Au,34.1485,35.2006,1.0521
TmLuTlPd,32.6371,35.4668,2.8297
Ac2LuTh,57.4669,60.1711,2.7043
Ti2H5,1.236,2.7082,1.4722
TlCd2Au,34.1535,35.2006,1.0471
TbZrSbH,35.8145,33.5656,-2.2489
Ac8Pt7,75.0698,63.8062,-11.2637
BaNa2Sc,11.8927,11.0474,-0.8453
Cs3Sr2I7,20.1353,20.5436,0.4084
GdTlAgPd,31.9072,32.0479,0.1407
NaIn2Sn,18.4716,18.6131,0.1416
Y2MgNiN,68.5317,57.4869,-11.0447
Sc2HgPb,15.2308,17.362,2.1312
PrHo2Pt,34.7761,30.5788,-4.1972
NaTb2CrO5,1.6575,3.2736,1.6161
GaNiW2,25.0077,27.4049,2.3972
NaIn2Sn,21.1725,18.6131,-2.5594
K2CaW,18.2912,18.3812,0.0901
TlMoPd2Au,34.0307,32.2995,-1.7312
LiTlAsPd,19.5437,21.1722,1.6284
YHfBr3,38.2343,29.3231,-8.9111
Mn(PdPt3)2,74.6479,54.2789,-20.369
Tl(PbAu)2,46.8903,48.8861,1.9958
YHfBr2,44.9565,34.9532,-10.0033
MnAgIr2,54.5594,49.8279,-4.7314
TaTlNi,33.5057,34.8041,1.2984
Ba2TlTePd,21.3731,22.0423,0.6691
Na3Pm(NdSe3)2,34.749,30.0271,-4.7219
Pr4ErHg2,0.0,0.7527,0.7527
Y2WBr,23.9783,17.8099,-6.1684
BeZnSb2,30.6833,21.8556,-8.8276
TlInRh,39.8962,36.8269,-3.0693
PAuF2,13.3603,14.8905,1.5302
FeOs2W,94.1666,82.3557,-11.8109
K2SrBe,13.4252,9.6234,-3.8018
Cr2Ir2I,28.0291,26.9593,-1.0698
Cs3Ba,18.3429,18.5631,0.2202
NaTeWI2,30.3988,29.4495,-0.9493
TmLu2Sc,25.7577,27.8823,2.1246
AlPt3N,56.0777,41.616,-14.4617
Y2WBr,29.7718,17.8099,-11.9619
Li2LaOs,23.8147,21.2952,-2.5195
CsSc2Ag,17.0502,16.3989,-0.6513
CsCeAsCO7,3.2214,2.6286,-0.5928
Cs2TmAsCO7,4.4072,4.6952,0.288
Na2HfTe,55.3904,43.1208,-12.2696
IrPt2Br,59.6841,47.7401,-11.944
TeCO2,29.1165,22.7704,-6.3461
IrPtBr2,41.3186,35.6407,-5.6779
Ta2TlNi,34.4278,38.0811,3.6533
TlInRh,40.0372,36.8269,-3.2104
AcTh(AsPt)2,53.7036,46.7612,-6.9424
TaAg2Se,37.274,31.9026,-5.3714
TaAg2Se,37.0648,31.9026,-5.1622
Ta2TlNi,34.2756,38.0811,3.8055
DyHf2Sc,80.1208,59.8136,-20.3072
TlTe(PS4)2,46.7238,38.644,-8.0798
CsNpPCO7,11.9167,10.0223,-1.8944
Cs2TbAsCO7,4.0791,3.6164,-0.4627
AcCo2Pt3,57.0743,44.6549,-12.4195
Y(BiS2)2,43.9764,36.8955,-7.081
ReTeIr2,42.8391,45.5336,2.6945
CsScPCO7,29.7508,24.1514,-5.5994
CsScPCO7,29.7563,24.1514,-5.6049
FeSn2Se,18.0925,18.5045,0.4121
YHo2(CrC2)2,53.9744,44.2088,-9.7655
ReTeIr2,42.7723,45.5336,2.7613
YPAu,21.3558,19.4729,-1.8829
Re2TeIr,42.0687,44.7531,2.6844
DyZnPd,17.0335,19.3387,2.3052
PmNp2F11,8.1247,10.0423,1.9176
Ac4SnHPt2,51.0294,46.218,-4.8114
Ac2H4Pt,30.9057,28.1406,-2.7651
ReTe2Ir,42.592,43.3894,0.7975
Mg6CoCu,11.5115,9.4378,-2.0737
LiTmThTa,33.7473,37.0791,3.3317
Y(GaRu)2,10.041,10.664,0.623
Pr3Sm,2.6945,5.1457,2.4512
Zr2AlSe,61.3628,53.3626,-8.0002
DyErCdAu,30.2146,32.4806,2.266
YPAu,39.4075,19.4729,-19.9346
YPAu2,41.2316,37.1829,-4.0487
TbTm2Au,33.5103,36.4246,2.9143
Y6Ga2Ru,15.0236,15.1217,0.0981
GeBi2C,46.1657,42.1896,-3.976
YbEuN2,15.4491,17.9782,2.5291
Tm2Co2I,13.1911,18.1356,4.9445
CaHf2ScMo,71.3981,53.1332,-18.2649
Mg6CrCo,6.0688,5.0325,-1.0364
TbTm2Au3,37.4215,39.8839,2.4624
MnIn2Cu,36.6492,31.6129,-5.0363
CsMg6Cr,6.4937,6.6683,0.1746
AcH(PtAu)2,55.9355,48.0095,-7.926
Ir3SeI,41.791,41.3973,-0.3937
Ta2AgSe,38.4925,36.9185,-1.574
NiPIrS2,41.2257,33.1245,-8.1012
NiPSeS2,39.6704,31.7741,-7.8963
RbInC,23.5426,21.4558,-2.0869
NaLiIn2Cu,15.2638,14.0906,-1.1731
Li5TlPd,9.9873,11.2411,1.2538
IrPt2Br,59.7801,47.7401,-12.04
Y(HfPt)2,86.8904,61.8979,-24.9925
GeBiC2,41.935,34.4796,-7.4554
ZrTlPd2,40.6351,39.8938,-0.7413
CsLaMg6,11.5951,10.2586,-1.3364
ThOsN3,29.1777,27.4386,-1.7391
CrNi2Pt,38.1984,30.7539,-7.4445
AcPHPt6,60.8697,44.1354,-16.7342
BaCu4Si,8.584,8.1159,-0.4681
ThCd4Pb,32.5786,34.1057,1.5271
ZrMn2W,75.1157,64.3697,-10.7459
TcTeBr2,39.4756,35.0895,-4.3861
Dy4TcPt,29.1799,27.6278,-1.5521
Zr2AlGe2,44.4538,37.7542,-6.6996
FePN3,14.0999,12.5613,-1.5386
Ir2PtBr,48.8325,43.1414,-5.6911
SrAc6Y,52.9568,53.2691,0.3123
Mg2PPb,12.4129,15.1815,2.7686
CsInGa2Tc,30.7103,28.2025,-2.5078
Tc2Te2Br,51.7052,45.258,-6.4472
Ba(ZrGe)2,36.694,33.1738,-3.5202
SiTc2Cl,51.2614,42.5348,-8.7266
Hf4TcHg,111.0076,81.1161,-29.8915
Hf4TlTc,119.603,89.6545,-29.9485
GdZnSi3,16.6221,13.2179,-3.4043
Dy2Er3Cd2,25.74,27.4887,1.7488
Rb3Sr2Cl6,9.408,8.3088,-1.0992
CuSbRh3,40.8749,29.8792,-10.9957
Ag2IrPt,49.1562,40.1753,-8.9809
Nb3Tl3Pd2,76.7332,68.281,-8.4522
Li4TmIn,9.4013,9.923,0.5218
Gd2ThPb,44.0905,47.1139,3.0233
Cr2Ni2Pt,33.8507,27.7159,-6.1348
Na3Bi2PbSe6,43.0467,37.2367,-5.81
Th2CdPb,51.0868,54.5277,3.4409
Tc2TeBr,60.4548,51.5781,-8.8767
BaSm2Cu,14.9875,16.6973,1.7098
Ac(HPt2)2,54.7055,41.1723,-13.5332
YReBr2,19.4872,20.9491,1.4619
TiTl3Pd,35.7984,36.8396,1.0411
TcTeBr2,39.699,35.0895,-4.6095
Sr2Y2Pb2S,32.4645,29.0433,-3.4212
KHfB,48.3203,35.9914,-12.3289
Tc2TeBr,60.038,51.5781,-8.4599
Sr2Ge3Au5,28.9039,29.7424,0.8385
LiIr2I,23.3865,26.6808,3.2943
Tl2AgPt,55.7587,47.3976,-8.3611
SrYPb3,39.3899,38.7586,-0.6313
Mg6NbSb,25.304,21.4498,-3.8541
BaTa2Se,30.4744,31.2221,0.7478
SrYPb2,34.9006,35.3067,0.406
HfTa4Tc,63.7851,57.1368,-6.6483
SrReWC,49.1625,39.2877,-9.8748
Y2CrO,49.3584,40.5403,-8.818
LiIr2Au,28.6144,36.9884,8.374
FeP2SI,33.6124,29.2359,-4.3765
La4AgBr,41.7938,29.061,-12.7328
Mg(TlPd2)6,27.2188,28.4285,1.2097
Ba2Na2Sr5Ca,11.2663,10.6949,-0.5714
Pr3SnH3C,9.2506,7.4475,-1.8031
Tm10Sb2HPt4,43.3573,37.0298,-6.3275
LiSb3Pd,31.4297,25.0302,-6.3996
BaNaSrCa,12.5304,10.5255,-2.0049
VP2SI,45.6077,38.4142,-7.1935
ZrTlPd3,41.2465,38.7026,-2.5439
CaOsPb,34.3471,36.9128,2.5657
NaZnSb2I,29.1092,24.1478,-4.9614
Tl2BiPd,40.2453,42.576,2.3306
HgAsPt2,47.4176,34.7899,-12.6277
Sr4ErH10,5.0858,6.9866,1.9007
CaOsPb,33.5283,36.9128,3.3845
Ac6OsPt2Br3,53.0885,49.7221,-3.3663
P(SeS2)2,47.4283,37.5642,-9.8641
Tl3CuPd6,22.2328,24.7363,2.5036
Nb2GaF11,19.3849,18.0559,-1.329
CaOs2Pb,36.3443,39.0905,2.7461
K4Ba2Ag,11.5661,9.9225,-1.6437
HfFe2F11,9.6854,7.8999,-1.7855
Tl2NiSb,42.9502,38.8763,-4.0738
LiCaOs2,23.4816,25.8459,2.3643
LiCaOs,16.5178,18.3659,1.8481
CeMg6Ti,7.1774,6.9567,-0.2207
Li4Tl3Pd,21.3098,22.4316,1.1217
LiCaOs2,22.6676,25.8459,3.1783
Lu2SbPd,32.201,31.7376,-0.4634
SnOsPb3,45.7865,46.2754,0.4889
LuSbAu,41.3607,39.9008,-1.4598
CaInOs2,22.4438,27.599,5.1552
CaOs2Pb,35.9587,39.0905,3.1318
BaAl6Ir,11.9085,11.5255,-0.383
TlTePd2,19.3585,22.696,3.3375
SbO,37.3041,0.0,-37.3041
NaCd(SnTe2)2,31.3398,30.2634,-1.0764
Nb(HgI4)2,29.2453,27.8877,-1.3576
YCr3Si2,25.4494,19.3779,-6.0715
Ba2LaO4,14.176,13.52,-0.656
Mg6ZnSn,5.7627,6.2281,0.4654
Ca2YSi,24.8166,21.682,-3.1346
SrTe2Ir,39.7116,35.7154,-3.9962
CSeO,31.5041,22.6248,-8.8792
TlTePd,32.8572,34.396,1.5387