Formula,E_hull_DFT (eV/atom),E_hull_ML (eV/atom),Delta (ML - DFT)
Pm2CuIr2,28.0949,31.3068,3.2119
KSbPb2,40.4589,39.2079,-1.251
Cu(IrRh)2,31.1628,29.7578,-1.405
ZnTe2Ir,38.0879,33.7634,-4.3245
CaMnCrP2,52.8796,44.415,-8.4646
Sr2TcF2,25.7429,20.8893,-4.8536
Si3NiPt,21.6647,15.396,-6.2687
Pr12Tl5Zn2,10.9863,11.9101,0.9238
Pa(BrF)2,13.4847,15.4354,1.9507
NaThPb2,48.7837,49.7928,1.0091
UAlO4,0.7861,6.8183,6.0322
LaYEr4,30.755,29.9302,-0.8248
CdCo3O,10.6848,10.6861,0.0013
ScBi3Au,43.6659,44.7668,1.1008
Sm2Ho2Cu,22.6006,25.4561,2.8555
BaNaLa2Os,34.0151,28.1264,-5.8887
ScCo2As,19.5628,16.1923,-3.3705
Sm2Dy2Cu,22.235,25.0916,2.8566
TaMnRu2,41.8483,40.8797,-0.9686
BeNiTe2,22.9394,23.3478,0.4083
SrSi2Cl,19.2219,15.7138,-3.5081
AgSb2Br,37.9501,32.8933,-5.0568
Ba2SrHf,37.1119,28.1039,-9.008
Y(ErTm2)3,24.1372,27.0699,2.9327
Ta2MnRu,46.9864,46.8357,-0.1507
Cd2HgSb2,23.7424,21.9938,-1.7486
ScCo2As,19.2509,16.1923,-3.0586
SrCaTb,17.4967,17.1361,-0.3607
SrCrPb2,33.913,33.0275,-0.8855
Li3CBr,22.7848,17.6699,-5.1149
Ta2MnRu,47.2092,46.8357,-0.3735
CsBaTa,17.2638,20.0243,2.7605
La(Cr2Bi)2,30.3752,28.3403,-2.0348
Tl2RuAu,38.2694,40.6044,2.3351
K5Sb2F12,11.2362,11.0396,-0.1966
GaRuRh3,44.2878,33.4653,-10.8226
EuAlGaCu,12.9846,13.4441,0.4595
TbY2Er5Tm,21.0743,23.256,2.1818
UTa2(AgS3)2,48.8191,38.8566,-9.9625
AlTl2Tc,51.4034,46.796,-4.6073
CaMn2Ni,78.3139,66.8006,-11.5132
NaSrSn6,20.0764,20.7075,0.6311
MnSbSe2,55.4247,42.3404,-13.0844
AlTl2Tc,51.2224,46.796,-4.4264
Bi2Te2Au,44.8236,44.5473,-0.2763
Bi3TeAu,51.6057,51.2587,-0.3471
AlTlTc2,61.5093,53.2965,-8.2129
TlZn2Tc,36.9893,35.0048,-1.9845
NbBRh,60.7955,52.1751,-8.6205
Cr(WN2)2,18.2709,18.5626,0.2917
LaW2I,31.8691,32.4921,0.623
Sr2Cr2In3,17.3473,15.4373,-1.91
GdGePt4,65.4637,49.5621,-15.9016
AcSbAs2Pd5,24.3593,24.3423,-0.017
FeBi2Au,39.5665,41.2896,1.7231
CaMo2P,23.5855,22.5113,-1.0742
Sr2HfZr,68.1947,51.2662,-16.9285
Y4Er3Sc,18.738,20.8272,2.0892
ZnSb2Pb,37.6778,35.1279,-2.5499
TbCoTe,19.6401,22.3857,2.7456
SrBeCr2,13.5774,9.6718,-3.9056
ErPuZr,58.2233,54.2952,-3.9282
LuNbB2,43.9121,39.8818,-4.0303
LiScS2Cl,37.5812,29.6378,-7.9434
LaMnI3,43.716,36.767,-6.9491
SrBeCr2,13.3023,9.6718,-3.6305
NbB3Rh,43.9333,35.9834,-7.9498
AlCuC,19.9501,15.555,-4.3951
POsN2,41.3899,34.3609,-7.029
Nd12YEr7,25.9985,27.4478,1.4493
Sr2CrAg,19.1778,16.4378,-2.74
Ba10Er5Cu15O34,3.1199,3.5376,0.4177
TbScSn,27.694,24.7843,-2.9097
BaNaErSi4NiO12,6.6321,5.7657,-0.8664
Nd5Sb4,32.6692,30.8638,-1.8054
LaBe2Sb,24.1127,20.7648,-3.3479
EuScGaPb,23.1982,25.4982,2.3001
TbY4Er3,21.2668,23.6428,2.376
YAlRe2,39.6508,37.4446,-2.2062
ZnSb2Pb,37.7011,35.1279,-2.5732
GdZnSb2,31.3577,29.2285,-2.1293
Y8Er2Tm,18.6665,19.8962,1.2297
Pa2Sn2O7,40.1178,34.4441,-5.6737
Li2SbTe,21.5238,18.797,-2.7268
K2UCl5,0.0,0.0,0.0
Cu2S2O7,5.6734,6.2657,0.5924
SmThZn17,11.3956,12.2373,0.8418
InReAgPb2,40.8797,40.1861,-0.6935
La2Be2Pb,26.7967,23.4258,-3.3709
NiW5,34.8287,37.9776,3.149
Ti2SbSe2,23.5036,20.3742,-3.1294
Tm2TiS4,40.1834,32.4329,-7.7505
BaEuPb,26.5246,28.2226,1.698
SiAgRu2,26.3203,21.2473,-5.073
TlNiO3,13.4238,13.7354,0.3116
ScNbW3,54.7213,50.9555,-3.7658
Hf2IrRuPt,91.3798,66.2582,-25.1216
Zr2Zn2Cu,43.6516,38.9855,-4.6661
CdTe2Ir,37.1854,36.6761,-0.5093
Ge2AsSe2,32.4333,29.0248,-3.4085
CdTe2Ir,36.8552,36.6761,-0.1791
NdZrZn17,13.1167,12.9449,-0.1718
Al2CuAu,15.9264,16.7405,0.8141
PmZrZn17,13.1238,12.9538,-0.17
Ac6LaPr2,47.7684,48.3217,0.5533
ScCoAs2,24.6388,18.4589,-6.1799
TaGePbS2,44.003,37.6844,-6.3186
PrSm6Tm,22.014,23.4716,1.4576
K3Pa5Se12,29.0416,26.0089,-3.0327
CeAlAs2Rh5,37.562,28.5793,-8.9827
Al2AgSb,20.7054,19.5694,-1.136
V2ZnBi2,70.1307,59.161,-10.9697
AlAgSb2,31.1991,27.1612,-4.038
V2Zn,88.4768,69.3609,-19.1159
VZn5,27.8386,23.6603,-4.1783
Al4Cu2Au5,24.4409,24.8782,0.4372
Hf8Tl,133.4237,94.8623,-38.5614
NaSrAgGe,19.7391,18.1504,-1.5887
Ac7(PrSm)2,45.0522,45.8374,0.7852
Pm7(PrTh)2,27.0954,28.774,1.6787
KFe2AgW,44.563,34.0291,-10.5339
SrSiAg3,33.0885,24.6065,-8.482
NaInSn4,17.7521,18.1485,0.3965
MnCd3I,36.3311,32.5519,-3.7792
Na(InSn)2,21.1241,21.2152,0.0911
Cu(BiIr)2,35.454,38.4151,2.961
Na2SrInSn2,17.483,17.3134,-0.1696
Zr2IrRu,67.6809,58.667,-9.0139
Pr3Tl3Hg2,17.2302,18.099,0.8687
AcP2ClO6,5.5926,4.9076,-0.685
ScAuI2,20.2861,23.3185,3.0323
SrPd5Pb2,25.5839,27.2145,1.6306
Na(In4Sn)2,20.512,20.7048,0.1928
PrTiRu2,21.7335,23.4767,1.7432
TmTaAl4,12.9018,15.5485,2.6467
TaMn,15.8359,26.6745,10.8386
AlSbOs2,33.0689,35.0085,1.9396
NaSrInSn2,19.5533,19.8665,0.3132
ZrScAs3,36.9626,29.9797,-6.9829
AlSb2Os,33.8013,32.2717,-1.5296
CsCa(AsO3)2,6.7665,7.1774,0.4109
ZrScAs,54.2125,43.8404,-10.3721
ZrSc2As,34.8751,29.267,-5.608
Al2V3Tc2,83.6324,65.5214,-18.111
NaTa2Tl,33.3176,36.5947,3.2771
Zr2ScAs,65.3627,53.3462,-12.0164
TaSb2S,41.1144,36.119,-4.9955
FeRh2W,35.8179,29.7172,-6.1007
CaCu,0.93,0.0118,-0.9183
Sm5YEr5,26.2751,27.5738,1.2987
Sm3Y(ErSe3)2,34.6364,30.7426,-3.8938
Ca2CrCu,14.446,11.7071,-2.7389
Ga2Pt2Au,43.4009,35.7906,-7.6103
Tl2Hg2S,29.4345,27.2839,-2.1506
LiCuW2,21.4257,25.0534,3.6277
Na2As2Pb3,32.2982,31.5886,-0.7096
Rb4YEr3O8,9.4019,10.6701,1.2682
NaAsPb2,34.9328,35.1385,0.2057
La5Cu,44.2482,34.226,-10.0221
Ce2Er2Al3,16.5176,18.9626,2.4449
Pr3Sm3Tl2,20.0875,21.5002,1.4128
NaLaNd2,31.5045,28.8806,-2.624
Tc3AgC,74.4316,59.1667,-15.2649
Pr2(ErTh)3,34.7528,36.8825,2.1297
Dy2Ho2Al3,16.914,19.7088,2.7948
Ac3Pr3Tm2,30.1787,31.1947,1.0159
Y2ErSn,30.1231,26.856,-3.2671
Ba2SbMo,12.4329,13.4298,0.9969
Sr3InOs,20.7575,21.8346,1.0771
Nb3BIr,93.7227,77.5756,-16.1471
Pr3Sm3Th2,24.2144,25.7661,1.5517
La6AlSb2,44.0892,33.3661,-10.7231
K12Au5O2,19.6647,18.9877,-0.677
InOsO2,23.424,23.8974,0.4734
Ba2Sr4Zn,8.8936,9.9852,1.0916
Ti2Al3Cr2,18.4894,18.1418,-0.3475
EuGaPb2,35.2271,36.8186,1.5914
Sc3(MnGa3)2,7.0565,6.59,-0.4664
Nd2Ho2Al3,16.6143,18.847,2.2328
Ho2Tm2Al3,17.8443,20.6133,2.769
BaEu2Ga,18.3296,17.9561,-0.3734
Sc2Nb2Al3,44.0503,36.5247,-7.5256
YErSn2,31.2325,27.8176,-3.4149
Ca2MnCr,39.6036,31.9689,-7.6347
FeSi2Br,12.1276,8.6022,-3.5253
Ca6MgAl,4.4501,5.7297,1.2796
Dy3AlGa2,16.4733,19.1116,2.6383
LaMnCr4,32.9455,28.1393,-4.8062
LaZn3Si,17.9548,14.9395,-3.0153
CeZn3Si,12.6742,12.7008,0.0265
CaMnCr4,30.1478,24.6455,-5.5023
Nd2Tm2Al3,17.2836,19.5185,2.2349
BaZn3Si,5.489,5.6388,0.1498
NiAg,5.3703,6.1721,0.8018
V3Si,91.5741,70.2092,-21.3649
YErB4,38.1337,34.3799,-3.7537
ReIO4,27.2539,23.2759,-3.978
Sm3Ti5S12,17.6644,11.2859,-6.3786
AlCd2Sb,21.7079,21.106,-0.602
Hf2Sb,101.9289,74.0515,-27.8774
AlCdSb2,28.1125,25.1862,-2.9263
NaCo2Cu,27.3977,22.0978,-5.2999
PrTmGe3,4.9369,7.7002,2.7632
CrCuTeN2,20.312,18.4337,-1.8784
Pm2Sc2Al3,11.3884,12.1592,0.7708
KGe2Bi,18.0928,20.5647,2.4719
KRbEu,14.2328,13.8876,-0.3452
DyTeRh,38.8453,34.5367,-4.3087
Tm2Sc2Al3,12.3248,14.1202,1.7955
Sc2Ti2Al3,5.7885,6.6696,0.8811
NdThSi3,20.0006,19.4261,-0.5745
TiCr2I,23.8711,21.9492,-1.9219
NaVNi,48.3046,39.6999,-8.6048
Rb3Tl2Sn3,18.636,19.0611,0.4251
ScReCl3,29.4285,23.8212,-5.6073
Tl2NiPb,40.5509,41.9768,1.4259
ScRePb3,58.8429,52.8033,-6.0396
TbTm(ScS2)2,44.5156,38.4072,-6.1084
AgI4,22.7063,22.0187,-0.6876
Sm2Te2F,31.858,31.6455,-0.2126
LaY5Er6,24.786,25.3449,0.5589
TlAsRh,36.7126,32.8822,-3.8303
CeScF4,2.8431,3.0642,0.2211
CrAs3,6.6823,5.6538,-1.0286
La5YEr,38.254,30.0977,-8.1563
TlAsRh,36.6777,32.8822,-3.7955
Na2InAg,25.0652,21.5537,-3.5114
BaLaPb,34.4665,31.731,-2.7355
Tl3AsRh,43.2447,40.2301,-3.0146
Ba2GdTeO6,6.0773,7.3409,1.2636
PmY3Er5,19.0839,22.2152,3.1314
KBPt3,40.0179,29.244,-10.7739
Sn3HgI,17.7721,18.0587,0.2866
Pr3Zr5S12,35.8654,25.0531,-10.8123
Cd2SbMo,21.7515,22.8199,1.0685
Na2Be3InAu12,35.362,36.073,0.7109
Cu3Sb2,18.2617,18.2834,0.0217
Ba2Al3Zn2,13.892,10.8389,-3.0531
Na2Be3CuAu12,36.7813,36.4931,-0.2882
Hg2GePt,21.9088,18.6351,-3.2737
LiCu3W,12.7074,14.542,1.8346
Na2Be3GeAu12,34.7866,35.6257,0.8391
La3NiB,32.6981,24.6676,-8.0304
SrZrTe2,48.0888,44.922,-3.1668
SmThSi3,20.055,19.4922,-0.5628
CsNaV2O6,23.0065,17.2897,-5.7168
SrZrTe2,47.9968,44.922,-3.0749
La2TaVPb,74.2672,59.1037,-15.1635
Na2Nd(ZrSe3)2,49.4539,40.0782,-9.3757
Y4SiPb,30.8689,29.6409,-1.228
TlSiIr2,38.5011,39.0349,0.5338
KLaScPb2,35.0057,32.942,-2.0637
Ba2LaPb2,27.3565,26.5589,-0.7977
La2TaPbBr,46.9381,40.1609,-6.7773
Ca(SbAs)2,19.8534,16.6621,-3.1914
HgP2ClO6,4.1785,1.5263,-2.6522
BaLaPb2,39.0467,36.9996,-2.047
LaVPb2,71.4207,61.5946,-9.8262
PmP2ClO6,1.6133,1.0584,-0.5549
Y2Er2Th5,46.3499,48.7233,2.3734
LaPbW3,46.3295,45.3878,-0.9416
LaEuPb,43.7874,40.7997,-2.9877
SrCa3Pd,7.9112,8.7369,0.8257
NdIn5Ni,18.2626,19.708,1.4454
Y4TaSi,40.652,34.922,-5.7299
BaSrPr,3.0771,4.799,1.7219
LaPbW2,46.4219,45.9546,-0.4672
YEr2TmIn4,19.2618,20.1618,0.9001
ZrNbB2,53.2889,46.7162,-6.5727
Sc2Al2Ir3,29.706,24.6503,-5.0557
LaScTe2,36.2964,32.3756,-3.9209
TiNbSb2,58.9311,49.1374,-9.7937
Tm2Sc3Al2,12.4612,14.5707,2.1095
Tl2SiIr,40.6839,40.6549,-0.029
PbAu3Br,47.8748,46.4489,-1.4259
Pr12SmSn6,4.4645,5.5714,1.1069
Ta2PtPbI,49.7469,45.2919,-4.455
Y2ErCo2,44.4673,38.4341,-6.0331
BeCdSb,22.9398,20.3767,-2.563
KAuCl4,3.2305,5.1147,1.8843
La2InBr,32.8559,27.3556,-5.5004
In2IrC,32.1767,30.3572,-1.8195
TlSi2Ir,31.1156,29.3904,-1.7253
Y3Er3Sc2,17.7121,19.0679,1.3557
CaAc2Er,40.9522,42.5293,1.5771
Hf2Co2I,57.2953,43.1288,-14.1665
Al2ZnFe,5.2191,5.6005,0.3815
Cu(SiIr)2,18.1911,19.6744,1.4833
LaMo4Pb,27.9575,28.8695,0.912
TaHg2I,15.9146,16.697,0.7824
LuBeRh2,32.2984,27.0658,-5.2326
Cs3TcI,38.2572,34.5454,-3.7118
IrIBr2,23.7457,24.1551,0.4094
GaBiSb3,40.4274,36.0058,-4.4216
FeAuSe2,36.1361,32.1347,-4.0014
Be2Tl2Se3,34.6392,31.6615,-2.9778
SiAgRu3,29.2346,22.0594,-7.1752
Ta2FePb,34.4365,35.9519,1.5154
Cs3AuF,22.0514,23.0124,0.9609
TbPm3Bi4,39.0075,41.1186,2.111
CoCu2Ir,31.6862,28.4089,-3.2773
La2PbW,48.8213,43.9131,-4.9082
LaPbW,48.2867,46.0786,-2.2082
La2SbPb,49.4421,41.8505,-7.5916
Al3(VMo)2,47.9078,37.5232,-10.3846
Ru2Pt7Rh2,77.0149,55.9439,-21.0709
ZnReHg,31.838,22.5531,-9.2849
PrSm4N5,11.3931,13.562,2.1689
La2ScPb,40.0557,34.9036,-5.1521
CsTc3I,67.1865,56.1312,-11.0553
La2GdPb,46.0968,40.9087,-5.1881
Tb4InHg2Rh,21.2719,21.1885,-0.0835
Hf2FePb,80.0827,61.1452,-18.9375
YEr2IO8,18.4362,17.2224,-1.2138
K2H2Pd,10.8924,10.4351,-0.4573
Ru2Pt2Rh7,58.7602,43.1873,-15.5729
LaTa3Pb,45.0298,43.7226,-1.3072
Y2ErCd3,18.7635,20.9197,2.1562
Y2Er3PuS6,42.0943,36.2141,-5.8802
Cs7(AuF)2,24.6956,25.2126,0.517
SrZrMo,36.1364,35.6958,-0.4407
Pr4InPb3,20.7559,21.1366,0.3807
LaOsO4,16.7459,16.1791,-0.5669
SrLa2Pb,38.4201,35.0641,-3.356
CsCu2Rh,18.8656,16.7714,-2.0943
Co2CuRh,32.8199,25.5553,-7.2646
HgP2SeS,24.4258,22.0637,-2.3621
Tb2CeFe2,9.1476,13.5421,4.3945
Cs2RhAuF6,18.2121,17.1828,-1.0293
CrSnRu,7.8358,11.9621,4.1262
FeRuI2,29.7322,22.3149,-7.4174
LaBeAl2,25.7983,19.825,-5.9733
Pm3TmSb2C,35.6905,32.1148,-3.5758
TiVSn2,47.0045,37.4369,-9.5676
ScGaPb2,29.5012,31.1751,1.674
Fe2Co2Ir,28.0559,24.1617,-3.8942
Sn2BiAs2,23.3848,24.5059,1.1211
SiGeAs3,14.5273,13.4135,-1.1137
Be2Al2Ir3,31.8024,30.1356,-1.6668
La3SiGe,29.5477,21.5504,-7.9973
Ce2Y3Er6Sc,22.7714,24.17,1.3986
TaGa2,39.3629,34.2186,-5.1443
LiYErAg,18.6366,18.866,0.2293
Li2CoTe,12.5527,12.208,-0.3447
InSiTe3,28.2745,27.4352,-0.8393
TaSi2Ir,27.2699,29.1206,1.8508
YErTcAg,76.5529,65.4957,-11.0572
YErAgPb,31.3855,32.1553,0.7698
ErZnSe3,31.2079,26.3009,-4.907
Ta2SiIr,32.6759,35.0152,2.3393
Nd3Ti,20.0009,22.2934,2.2926
Al2Ag2Sb,22.8368,19.5871,-3.2497
Fe2CoPd2,18.0501,17.5047,-0.5455
DySc3,10.67,13.3998,2.7298
BaAg2HgH,13.1854,10.5479,-2.6375
Li3YNb,32.3635,26.9232,-5.4403
VCuPS2,54.5143,42.1502,-12.3641
NaSrIn,17.0602,17.7044,0.6441
HIO4,11.5486,10.9635,-0.5851
LiTiRh,17.85,15.2789,-2.5711
InAgP2S,24.5836,23.3584,-1.2252
Pm2BiPb,38.6159,40.6629,2.047
Na(HfSi)2,61.4303,43.5395,-17.8908
YEr2Re,28.9199,32.5739,3.654
YRe4Si,41.7738,42.2724,0.4986
Tb2ZrRh4,49.1738,39.1153,-10.0585
HfTlAu,75.1699,63.7977,-11.3721
Na3TiS4,40.1546,31.1761,-8.9785
Re2(OsRh)3,44.2681,41.1567,-3.1114
Si3NiRh,20.4278,14.1601,-6.2677
LiTlPb,26.2672,29.352,3.0848
Tl2Se2S7,54.2155,42.7195,-11.496
Li2YCd,8.4849,9.8923,1.4074
Sr2U2S7,49.6149,41.1064,-8.5085
WSeI2,17.5167,17.3532,-0.1635
Bi2Pb2Au3,50.8515,51.9553,1.1038
ZnOs2Pt,45.4276,42.2011,-3.2265
Tl2Pb2Au3,49.7567,50.8327,1.076
CaSbRh3,41.7973,30.2968,-11.5005
Ta2Cr,50.4534,43.737,-6.7164
TaCr,44.7681,30.0547,-14.7134
U(FeGe)2,17.3349,20.3337,2.9988
Re3(TcB)2,43.5758,41.6359,-1.9399
Th(GeRu)3,13.5371,16.7185,3.1814
Ru2(PtRh)3,67.3491,49.3851,-17.9641
YWF2,28.1704,23.3464,-4.824
Na3Ir(BrF3)2,15.15,14.1674,-0.9826
CsBa(PO3)2,6.4354,4.8195,-1.6159
KZrRu2,30.751,29.0465,-1.7045
Re2Tc3B2,51.1131,46.507,-4.6061
Sc2RhAuC,32.772,27.1916,-5.5805
Ac4YEr3Bi8,48.9134,50.4612,1.5478
ScTiS2,32.4566,28.0372,-4.4193
InOs2Pt,48.7077,45.0333,-3.6744
SiIrN2,10.4932,10.3623,-0.1309
HfSiBr3,38.6959,28.1286,-10.5673
Pu2UPb,66.4545,67.9289,1.4744
MnNb2Sn,93.2191,77.8648,-15.3543
Na(HfSi)2,61.4106,43.5395,-17.8711
Hg4Mo5,3.7738,6.5393,2.7655
U3Se3S2,48.9965,43.0004,-5.9962
AcSbAs2Rh5,41.0478,32.9982,-8.0496
ErSiS3,25.2067,17.7619,-7.4448
CdGa2Ag,16.9292,16.3186,-0.6106
ZnSbPd2,18.8355,19.7655,0.93
Pu3SiOs,42.3119,43.2774,0.9655
SiNi3P,10.7377,8.6923,-2.0454
SmAs2Rh5Pb,37.7411,30.5492,-7.1918
HfTiS4,61.2588,44.82,-16.4388
HfGeBi,62.4733,51.4435,-11.0298
Sc2ReGe2,34.5758,25.2397,-9.3362
Nb(FePt)2,64.6056,50.3622,-14.2434
Fe2Ni2Ir,46.5763,37.5727,-9.0036
MoOsO4,0.0,1.5893,1.5893
Fe2Ni2W,45.6079,36.7373,-8.8707
Fe2Pd2Au,16.5603,18.8933,2.3329
TmScGaRh,22.5677,21.9226,-0.6452
Ac4Sb2PS,49.9743,49.9872,0.0129
Ir3Os2Ru3,39.6873,35.6944,-3.9929
LiMo2,10.7229,14.3805,3.6577
NaHfPAu2,53.8518,44.6403,-9.2115
La3HfBi,70.9068,53.4961,-17.4107
Na2SnAsI,20.4614,18.589,-1.8724
Ba3Li2(InAu2)2,21.8121,22.3122,0.5001
Sr2CaOs,17.2065,18.4743,1.2678
Be2SnMoBr,23.6147,17.2108,-6.4039
LiScPb,10.6606,14.8376,4.177
Li7YCd4,7.7896,8.5809,0.7913
BeHg2Sb,11.5709,10.4234,-1.1475
PrSiAu3,29.8113,30.2024,0.3912
Pr2TlFe2,20.0377,17.7081,-2.3296
ZnMoBr2,11.9863,12.7366,0.7504
Cs2K2Rb2Ag,15.4156,13.8725,-1.5432
NdSmEuAl,20.4597,22.7099,2.2502
PrSmF,8.2917,10.4749,2.1832
Na3Ni2OsO6,14.0675,12.687,-1.3805
SmSbRu,21.6388,24.187,2.5483
La4Sn3Se8,42.3138,33.8098,-8.504
CaFe2Ni,40.805,30.7214,-10.0836
TiIn2WS,29.2652,26.9039,-2.3613
LiMo3,11.8216,15.7338,3.9123
Sc2TcBr,66.9589,55.3873,-11.5715
NaEr(ReO5)4,11.9121,11.4529,-0.4592
SrAuCl2,24.5536,23.6746,-0.8789
SnPC,30.3131,23.5037,-6.8095
CaFeNi,33.4823,26.7015,-6.7809
Tm2Be2Ga3,10.3552,11.4267,1.0715
CeMg2(H4Au)3,10.7814,11.1504,0.369
PaTaAs2Ru5,25.4324,24.8308,-0.6016
ScTcBr,86.6914,71.4631,-15.2283
Be2Nb3Ge2,62.9284,51.8934,-11.035
SnCO2,69.1091,52.3653,-16.7437
ZnCd2Ru,15.809,17.3516,1.5427
YErTcNi,72.0079,64.2219,-7.7861
SiSn2C,26.9779,20.8286,-6.1493
Th7(OsPb)2,58.9366,61.5753,2.6387
SrInSnBi,26.7665,28.1694,1.4029
Hg3PtBr,21.6235,15.7929,-5.8306
Sc4SeI5,17.2142,17.6999,0.4857
Cu2AgIr2,21.3759,24.604,3.2281
Sr2Al3Pt2,30.2075,23.4529,-6.7546
Ti7SiGe3,8.313,8.122,-0.191
Zr5NiSb3,64.1668,53.9906,-10.1762
SmEuRu4,19.5808,22.4291,2.8483
Ti2FeS,18.5737,15.5623,-3.0115
Ag7(PdPt)2,39.5258,31.1866,-8.3392
K12AgHg6,9.0083,7.6029,-1.4055
CeSbAs2Ru5,21.0736,20.3639,-0.7097
Tb2PrY6,9.2083,11.9173,2.709
CeYEr,7.7248,13.3774,5.6526
NbSiPtPb2,71.2051,58.8121,-12.393
Y6TlPt2,27.4218,23.8713,-3.5505
NpSnAs2Ru5,23.4684,23.1493,-0.3191
U(CdP)2,22.5773,24.8935,2.3162
ScTc2Br,88.3103,73.6376,-14.6728
TiSnS2,25.5953,15.4968,-10.0985
Th2InP,38.0768,41.8772,3.8004
Bi4Au5,50.5781,51.8199,1.2418
Li2SmPb,19.3786,21.1407,1.7621
Ca2NiPd2,8.7822,9.033,0.2508
Yb2C,43.5585,39.1909,-4.3675
Nb2Sb,84.4305,69.2454,-15.1851
SrLaSc,19.4532,18.3535,-1.0997
Ti2CuS,18.0737,16.7624,-1.3114
PrSm12Y7,20.0054,21.0145,1.0091
CsSi2Mo,12.5498,12.1078,-0.442
Sr2LaSc,21.0488,19.0184,-2.0304
TiPtS2,51.674,38.9008,-12.7731
Al5CuSi2,17.1842,14.794,-2.3902
LiTm(NpS2)2,48.2835,40.8868,-7.3967
Os3Ru2Rh3,49.5667,43.285,-6.2817
TiV4Tc,102.0586,80.3719,-21.6867
TiS2,38.4197,30.4526,-7.967
SmPaCu2,26.5849,29.6652,3.0803
Ba(SrGe)2,5.849,7.6313,1.7823
Na(InPt)2,43.9771,35.1954,-8.7816
Sm7(BiRu)2,28.4553,30.7722,2.3169
LiNdSmRu,16.4054,19.762,3.3566
AcFeO4,8.0326,9.6397,1.6071
Sc2InPb2,23.0477,25.1391,2.0914
KSm2Ru,19.5617,21.4414,1.8797
Al2Cd2Cl,7.4877,9.4905,2.0028
Sm6Bi2Ru,30.0853,32.1996,2.1143
AlCuSi,17.6276,16.3115,-1.3161
Ac7(PmTm)2,51.3988,52.3656,0.9668
BeAl2Os,23.1879,21.8973,-1.2907
Pr2Sm3Ru2,29.5898,28.7581,-0.8317
Ti(VS2)3,65.3965,48.0123,-17.3843
TbCe(Sm3Tm)2,26.5359,27.8465,1.3107
Ce2BiF2,22.2237,23.8133,1.5896
Sm2NpFe2,17.9016,19.1331,1.2315
YbP,18.1731,21.7042,3.5311
Pa2Ti2S5,46.2695,38.1647,-8.1048
CdRe3I,59.0555,51.1765,-7.879
KZnCr2,11.6021,9.1239,-2.4781
Ce4Tm3ScS8,41.1083,33.9769,-7.1314
NiSbAu2,37.3178,36.1656,-1.1522
La4AgSe6,40.6579,32.7792,-7.8787
CaCo2Ni,28.2787,22.1696,-6.1091
CeTaN,20.3215,23.7388,3.4173
Er2Co2Cu,10.9129,11.1776,0.2647
Cu2Os2Ru,16.6642,21.824,5.1598
TaSn2Br,18.6856,21.6995,3.0138
Sm2PaFe2,30.7315,28.0237,-2.7077
TmPa2CrC4,50.468,42.1401,-8.3279
Mn2Be2Co3,38.9723,30.0865,-8.8858
Na2Mg(Cd4Ag)3,20.9415,19.6739,-1.2676
U2SnAu2,43.8115,46.957,3.1455
NaCoAs2Ru,19.5396,15.3848,-4.1548
Ti4SeS,13.0082,11.4857,-1.5225
CeTaN4,1.6618,5.7238,4.062
Ir2OsRu,40.5605,40.5394,-0.0211
PmY(PaP2)2,28.9455,28.7283,-0.2172
SmYCuSi,29.8132,27.9475,-1.8658
TiBS,12.5295,12.2685,-0.261
LaY3Au2,24.9375,24.912,-0.0255
CaLa2Nd,33.3293,27.2468,-6.0825
Ca(LaV)2,68.3243,52.0613,-16.263
NdY3Tl2,22.557,25.2202,2.6632
Y3AgPd2,29.0047,25.0724,-3.9323
CoCuSb,40.4807,32.0441,-8.4366
Y3B2Au2N3,61.2207,52.7723,-8.4484
AcLa2Pr,40.9087,35.65,-5.2587
CaLaNd,23.3515,22.5575,-0.794
ScSbPd3,25.1023,21.6718,-3.4305
LaTiS2Cl,33.4347,24.6195,-8.8152
Y2SiSb,36.4248,32.6122,-3.8126
La(CuSb)2,25.694,21.8923,-3.8017
Zr3PdPb,73.2548,64.373,-8.8818
NbBPI2,41.0412,33.9244,-7.1167
Ac4LaPr7,23.217,23.1452,-0.0718
Sc(CuGe)2,14.9793,13.428,-1.5513
Li2InRh,18.3899,14.7791,-3.6109
Yb3Ti,27.7193,28.9706,1.2513
ThGeRu2,26.5114,29.8482,3.3368
KHfMoBr2,40.4441,29.9983,-10.4458
GePtO4,16.1377,14.1265,-2.0112
NaInPt2,51.7745,40.5293,-11.2451
SnGeO4,29.2801,24.7468,-4.5333
SbRhC2O,52.0026,38.8703,-13.1323
La2Ag3,39.4076,31.2121,-8.1955
Pu4Ir2O,52.8755,54.3737,1.4982
Ba5Pb4,22.8148,23.8873,1.0725
CdBiI3,28.6565,29.0597,0.4032
Bi2Au,52.2264,53.8194,1.5931
Ti5VRh4,34.4003,27.8338,-6.5665
TlFeSe,33.332,31.3126,-2.0194
TlFeSe,33.5563,31.3126,-2.2437
U5As3,37.2865,40.3667,3.0802
LiNbSi3,42.4584,32.4559,-10.0025
UTaBeO6,2.2221,7.1216,4.8995
Dy7P5Pb,12.5824,19.3199,6.7376
Ce6CdRu,23.0832,23.5014,0.4181
Sr2NbPd2,35.934,31.297,-4.6369
TiAsS4,44.5784,32.5038,-12.0746
LaAg2,34.7096,28.4515,-6.2581
KRb2Ag,10.3954,8.0243,-2.3712
Ta5Ga2NiH,53.2307,43.9565,-9.2741
Ni2SbAs,30.9472,24.0942,-6.853
Y3ErRh2,27.635,24.4883,-3.1466
TiNiS4,41.6837,30.4911,-11.1926
Ti2CrFe2,6.8968,7.1156,0.2189
As(PH)2,0.0,0.7938,0.7938
Na2GaTe,22.2679,20.2228,-2.0452
AcSnAu3,44.8701,46.4315,1.5613
Er2TmP,22.7693,25.645,2.8757
Ti5Ga4Tc,14.742,15.683,0.9411
Y3TmRh2,27.8411,24.7009,-3.1402
BaCoIr2,19.6409,21.23,1.5891
AcGdEr,41.128,43.847,2.719
TaCrI2,44.3996,33.4297,-10.9699
Ti2TcSn,32.4552,28.0097,-4.4455
Y6SbRu2,14.0751,12.1155,-1.9597
Sr2BiPb2,33.9784,35.4894,1.511
Rb2ZnAgCl5,2.7474,2.3672,-0.3802
Y3Sn2Rh,15.7348,10.9694,-4.7654
Ho2Ta2C3,44.0186,37.0037,-7.0149
Y3Tl2Rh,14.3883,16.3515,1.9632
Pr(In2Ir)6,25.8975,26.8494,0.9519
Ir2AuBr,37.4154,39.3695,1.9541
Y3BiSb2,29.9126,29.8806,-0.032
TaAl2Pb,24.1141,26.5526,2.4386
TbY3Sb2,25.4901,25.1174,-0.3727
SnPb3Au,41.4346,42.8868,1.4523
TlFePb,38.2254,37.8694,-0.356
CeTa2TlO7,13.005,13.0396,0.0347
Sr(LaTi)2,21.53,18.2569,-3.2731
ZrSiOs2,49.4727,46.2963,-3.1764
BaTiSeS2,41.3692,30.3738,-10.9953
Li2(TmIn2)3,19.886,20.2684,0.3824
Dy(YPb4)3,43.4484,44.4103,0.9618
FeSb2As,44.9373,37.9124,-7.025
FeCuTe,41.7854,34.6006,-7.1847
Al(InSi)2,19.0621,16.4062,-2.6559
Ti2PbS,23.8825,22.6501,-1.2324
Nd(PuFe)2,24.1967,27.496,3.2993
CoMoBr2,17.3089,15.4525,-1.8564
TbY3Th2,27.2588,30.0845,2.8257
RbReI2,18.546,20.1547,1.6086
Sm4SiGeI2,20.2994,21.534,1.2346
Mn2TcNi,99.9556,84.7977,-15.1579
BaSrPtPbCl,33.3137,29.0767,-4.237
K4La3ScS8,41.9615,31.1206,-10.8409
Sc3CdTc,56.6425,48.1696,-8.4728
Y3TmAu2,21.4426,24.1329,2.6903
AlAsSe,35.7182,33.7411,-1.977
InSb2As,30.0672,27.0968,-2.9704
TaP3,13.7645,13.6937,-0.0708
Cs2RbYCl6,16.8803,17.4845,0.6042
Ca2TaP,26.3835,24.6314,-1.7521